 104 104   0   0
  0.1734773E+02  0.7810600E-09  0.7810600E-09  0.2957380E-08  0.5000000E-15
  1.000000000000000E-004
  CAR 
 Sr Ti O3  (Pm-3m) ~ C:/Users/Amar-Deep. 
     11.87811027    -58.78441649  301      2.11364228      1.00000000
    -58.784  0.0000E+00  0.0000E+00  0.0000E+00  0.0000E+00
    -58.549  0.0000E+00  0.0000E+00  0.0000E+00  0.0000E+00
    -58.313  0.0000E+00  0.0000E+00  0.0000E+00  0.0000E+00
    -58.078  0.0000E+00  0.0000E+00  0.0000E+00  0.0000E+00
    -57.842  0.0000E+00  0.0000E+00  0.0000E+00  0.0000E+00
    -57.607  0.0000E+00  0.0000E+00  0.0000E+00  0.0000E+00
    -57.371  0.0000E+00  0.0000E+00  0.0000E+00  0.0000E+00
    -57.136  0.0000E+00  0.0000E+00  0.0000E+00  0.0000E+00
    -56.900  0.0000E+00  0.0000E+00  0.0000E+00  0.0000E+00
    -56.665  0.0000E+00  0.0000E+00  0.0000E+00  0.0000E+00
    -56.429  0.0000E+00  0.0000E+00  0.0000E+00  0.0000E+00
    -56.193  0.0000E+00  0.0000E+00  0.0000E+00  0.0000E+00
    -55.958  0.8055E-09  0.7960E-09  0.1897E-09  0.1875E-09
    -55.722  0.6261E-03  0.6205E-03  0.1475E-03  0.1461E-03
    -55.487  0.4786E-01  0.4781E-01  0.1142E-01  0.1141E-01
    -55.251  0.1006E+00  0.1006E+00  0.3511E-01  0.3511E-01
    -55.016  0.2127E-01  0.2127E-01  0.4012E-01  0.4012E-01
    -54.780  0.3602E-01  0.3602E-01  0.4860E-01  0.4860E-01
    -54.545  0.5925E-02  0.5925E-02  0.5000E-01  0.5000E-01
    -54.309  0.2163E-06  0.2164E-06  0.5000E-01  0.5000E-01
    -54.074  0.2037E-15  0.2037E-15  0.5000E-01  0.5000E-01
    -53.838  0.0000E+00  0.0000E+00  0.5000E-01  0.5000E-01
    -53.602  0.0000E+00  0.0000E+00  0.5000E-01  0.5000E-01
    -53.367  0.0000E+00  0.0000E+00  0.5000E-01  0.5000E-01
    -53.131  0.0000E+00  0.0000E+00  0.5000E-01  0.5000E-01
    -52.896  0.0000E+00  0.0000E+00  0.5000E-01  0.5000E-01
    -52.660  0.0000E+00  0.0000E+00  0.5000E-01  0.5000E-01
    -52.425  0.0000E+00  0.0000E+00  0.5000E-01  0.5000E-01
    -52.189  0.0000E+00  0.0000E+00  0.5000E-01  0.5000E-01
    -51.954  0.0000E+00  0.0000E+00  0.5000E-01  0.5000E-01
    -51.718  0.0000E+00  0.0000E+00  0.5000E-01  0.5000E-01
    -51.483  0.0000E+00  0.0000E+00  0.5000E-01  0.5000E-01
    -51.247  0.0000E+00  0.0000E+00  0.5000E-01  0.5000E-01
    -51.012  0.0000E+00  0.0000E+00  0.5000E-01  0.5000E-01
    -50.776  0.0000E+00  0.0000E+00  0.5000E-01  0.5000E-01
    -50.540  0.0000E+00  0.0000E+00  0.5000E-01  0.5000E-01
    -50.305  0.0000E+00  0.0000E+00  0.5000E-01  0.5000E-01
    -50.069  0.0000E+00  0.0000E+00  0.5000E-01  0.5000E-01
    -49.834  0.0000E+00  0.0000E+00  0.5000E-01  0.5000E-01
    -49.598  0.0000E+00  0.0000E+00  0.5000E-01  0.5000E-01
    -49.363  0.0000E+00  0.0000E+00  0.5000E-01  0.5000E-01
    -49.127  0.0000E+00  0.0000E+00  0.5000E-01  0.5000E-01
    -48.892  0.0000E+00  0.0000E+00  0.5000E-01  0.5000E-01
    -48.656  0.0000E+00  0.0000E+00  0.5000E-01  0.5000E-01
    -48.421  0.0000E+00  0.0000E+00  0.5000E-01  0.5000E-01
    -48.185  0.0000E+00  0.0000E+00  0.5000E-01  0.5000E-01
    -47.949  0.0000E+00  0.0000E+00  0.5000E-01  0.5000E-01
    -47.714  0.0000E+00  0.0000E+00  0.5000E-01  0.5000E-01
    -47.478  0.0000E+00  0.0000E+00  0.5000E-01  0.5000E-01
    -47.243  0.0000E+00  0.0000E+00  0.5000E-01  0.5000E-01
    -47.007  0.0000E+00  0.0000E+00  0.5000E-01  0.5000E-01
    -46.772  0.0000E+00  0.0000E+00  0.5000E-01  0.5000E-01
    -46.536  0.0000E+00  0.0000E+00  0.5000E-01  0.5000E-01
    -46.301  0.0000E+00  0.0000E+00  0.5000E-01  0.5000E-01
    -46.065  0.0000E+00  0.0000E+00  0.5000E-01  0.5000E-01
    -45.830  0.0000E+00  0.0000E+00  0.5000E-01  0.5000E-01
    -45.594  0.0000E+00  0.0000E+00  0.5000E-01  0.5000E-01
    -45.359  0.0000E+00  0.0000E+00  0.5000E-01  0.5000E-01
    -45.123  0.0000E+00  0.0000E+00  0.5000E-01  0.5000E-01
    -44.887  0.0000E+00  0.0000E+00  0.5000E-01  0.5000E-01
    -44.652  0.0000E+00  0.0000E+00  0.5000E-01  0.5000E-01
    -44.416  0.0000E+00  0.0000E+00  0.5000E-01  0.5000E-01
    -44.181  0.0000E+00  0.0000E+00  0.5000E-01  0.5000E-01
    -43.945  0.0000E+00  0.0000E+00  0.5000E-01  0.5000E-01
    -43.710  0.0000E+00  0.0000E+00  0.5000E-01  0.5000E-01
    -43.474  0.0000E+00  0.0000E+00  0.5000E-01  0.5000E-01
    -43.239  0.0000E+00  0.0000E+00  0.5000E-01  0.5000E-01
    -43.003  0.0000E+00  0.0000E+00  0.5000E-01  0.5000E-01
    -42.768  0.0000E+00  0.0000E+00  0.5000E-01  0.5000E-01
    -42.532  0.0000E+00  0.0000E+00  0.5000E-01  0.5000E-01
    -42.296  0.0000E+00  0.0000E+00  0.5000E-01  0.5000E-01
    -42.061  0.0000E+00  0.0000E+00  0.5000E-01  0.5000E-01
    -41.825  0.0000E+00  0.0000E+00  0.5000E-01  0.5000E-01
    -41.590  0.0000E+00  0.0000E+00  0.5000E-01  0.5000E-01
    -41.354  0.0000E+00  0.0000E+00  0.5000E-01  0.5000E-01
    -41.119  0.0000E+00  0.0000E+00  0.5000E-01  0.5000E-01
    -40.883  0.0000E+00  0.0000E+00  0.5000E-01  0.5000E-01
    -40.648  0.0000E+00  0.0000E+00  0.5000E-01  0.5000E-01
    -40.412  0.0000E+00  0.0000E+00  0.5000E-01  0.5000E-01
    -40.177  0.0000E+00  0.0000E+00  0.5000E-01  0.5000E-01
    -39.941  0.0000E+00  0.0000E+00  0.5000E-01  0.5000E-01
    -39.706  0.0000E+00  0.0000E+00  0.5000E-01  0.5000E-01
    -39.470  0.0000E+00  0.0000E+00  0.5000E-01  0.5000E-01
    -39.234  0.0000E+00  0.0000E+00  0.5000E-01  0.5000E-01
    -38.999  0.0000E+00  0.0000E+00  0.5000E-01  0.5000E-01
    -38.763  0.0000E+00  0.0000E+00  0.5000E-01  0.5000E-01
    -38.528  0.0000E+00  0.0000E+00  0.5000E-01  0.5000E-01
    -38.292  0.0000E+00  0.0000E+00  0.5000E-01  0.5000E-01
    -38.057  0.0000E+00  0.0000E+00  0.5000E-01  0.5000E-01
    -37.821  0.0000E+00  0.0000E+00  0.5000E-01  0.5000E-01
    -37.586  0.0000E+00  0.0000E+00  0.5000E-01  0.5000E-01
    -37.350  0.0000E+00  0.0000E+00  0.5000E-01  0.5000E-01
    -37.115  0.0000E+00  0.0000E+00  0.5000E-01  0.5000E-01
    -36.879  0.0000E+00  0.0000E+00  0.5000E-01  0.5000E-01
    -36.643  0.0000E+00  0.0000E+00  0.5000E-01  0.5000E-01
    -36.408  0.0000E+00  0.0000E+00  0.5000E-01  0.5000E-01
    -36.172  0.0000E+00  0.0000E+00  0.5000E-01  0.5000E-01
    -35.937  0.0000E+00  0.0000E+00  0.5000E-01  0.5000E-01
    -35.701  0.0000E+00  0.0000E+00  0.5000E-01  0.5000E-01
    -35.466  0.0000E+00  0.0000E+00  0.5000E-01  0.5000E-01
    -35.230  0.0000E+00  0.0000E+00  0.5000E-01  0.5000E-01
    -34.995  0.0000E+00  0.0000E+00  0.5000E-01  0.5000E-01
    -34.759  0.0000E+00  0.0000E+00  0.5000E-01  0.5000E-01
    -34.524  0.0000E+00  0.0000E+00  0.5000E-01  0.5000E-01
    -34.288  0.0000E+00  0.0000E+00  0.5000E-01  0.5000E-01
    -34.053  0.0000E+00  0.0000E+00  0.5000E-01  0.5000E-01
    -33.817  0.0000E+00  0.0000E+00  0.5000E-01  0.5000E-01
    -33.581  0.0000E+00  0.0000E+00  0.5000E-01  0.5000E-01
    -33.346  0.0000E+00  0.0000E+00  0.5000E-01  0.5000E-01
    -33.110  0.3001E-13  0.3006E-13  0.5000E-01  0.5000E-01
    -32.875  0.2963E-05  0.2967E-05  0.5000E-01  0.5000E-01
    -32.639  0.1224E-01  0.1225E-01  0.5288E-01  0.5289E-01
    -32.404  0.3006E-01  0.3005E-01  0.5996E-01  0.5996E-01
    -32.168  0.1567E-03  0.1564E-03  0.6000E-01  0.6000E-01
    -31.933  0.1924E-01  0.1917E-01  0.6453E-01  0.6451E-01
    -31.697  0.2196E+00  0.2195E+00  0.1163E+00  0.1162E+00
    -31.462  0.3417E+00  0.3418E+00  0.1967E+00  0.1967E+00
    -31.226  0.1182E+00  0.1182E+00  0.2246E+00  0.2246E+00
    -30.990  0.8988E-01  0.8988E-01  0.2457E+00  0.2457E+00
    -30.755  0.1804E-01  0.1805E-01  0.2500E+00  0.2500E+00
    -30.519  0.2227E-05  0.2228E-05  0.2500E+00  0.2500E+00
    -30.284  0.1041E-13  0.1042E-13  0.2500E+00  0.2500E+00
    -30.048  0.0000E+00  0.0000E+00  0.2500E+00  0.2500E+00
    -29.813  0.0000E+00  0.0000E+00  0.2500E+00  0.2500E+00
    -29.577  0.0000E+00  0.0000E+00  0.2500E+00  0.2500E+00
    -29.342  0.0000E+00  0.0000E+00  0.2500E+00  0.2500E+00
    -29.106  0.0000E+00  0.0000E+00  0.2500E+00  0.2500E+00
    -28.871  0.0000E+00  0.0000E+00  0.2500E+00  0.2500E+00
    -28.635  0.0000E+00  0.0000E+00  0.2500E+00  0.2500E+00
    -28.400  0.0000E+00  0.0000E+00  0.2500E+00  0.2500E+00
    -28.164  0.0000E+00  0.0000E+00  0.2500E+00  0.2500E+00
    -27.928  0.0000E+00  0.0000E+00  0.2500E+00  0.2500E+00
    -27.693  0.0000E+00  0.0000E+00  0.2500E+00  0.2500E+00
    -27.457  0.0000E+00  0.0000E+00  0.2500E+00  0.2500E+00
    -27.222  0.0000E+00  0.0000E+00  0.2500E+00  0.2500E+00
    -26.986  0.0000E+00  0.0000E+00  0.2500E+00  0.2500E+00
    -26.751  0.0000E+00  0.0000E+00  0.2500E+00  0.2500E+00
    -26.515  0.0000E+00  0.0000E+00  0.2500E+00  0.2500E+00
    -26.280  0.0000E+00  0.0000E+00  0.2500E+00  0.2500E+00
    -26.044  0.0000E+00  0.0000E+00  0.2500E+00  0.2500E+00
    -25.809  0.0000E+00  0.0000E+00  0.2500E+00  0.2500E+00
    -25.573  0.0000E+00  0.0000E+00  0.2500E+00  0.2500E+00
    -25.337  0.0000E+00  0.0000E+00  0.2500E+00  0.2500E+00
    -25.102  0.0000E+00  0.0000E+00  0.2500E+00  0.2500E+00
    -24.866  0.0000E+00  0.0000E+00  0.2500E+00  0.2500E+00
    -24.631  0.0000E+00  0.0000E+00  0.2500E+00  0.2500E+00
    -24.395  0.0000E+00  0.0000E+00  0.2500E+00  0.2500E+00
    -24.160  0.0000E+00  0.0000E+00  0.2500E+00  0.2500E+00
    -23.924  0.0000E+00  0.0000E+00  0.2500E+00  0.2500E+00
    -23.689  0.0000E+00  0.0000E+00  0.2500E+00  0.2500E+00
    -23.453  0.0000E+00  0.0000E+00  0.2500E+00  0.2500E+00
    -23.218  0.0000E+00  0.0000E+00  0.2500E+00  0.2500E+00
    -22.982  0.0000E+00  0.0000E+00  0.2500E+00  0.2500E+00
    -22.747  0.0000E+00  0.0000E+00  0.2500E+00  0.2500E+00
    -22.511  0.0000E+00  0.0000E+00  0.2500E+00  0.2500E+00
    -22.275  0.0000E+00  0.0000E+00  0.2500E+00  0.2500E+00
    -22.040  0.0000E+00  0.0000E+00  0.2500E+00  0.2500E+00
    -21.804  0.0000E+00  0.0000E+00  0.2500E+00  0.2500E+00
    -21.569  0.0000E+00  0.0000E+00  0.2500E+00  0.2500E+00
    -21.333  0.0000E+00  0.0000E+00  0.2500E+00  0.2500E+00
    -21.098  0.0000E+00  0.0000E+00  0.2500E+00  0.2500E+00
    -20.862  0.0000E+00  0.0000E+00  0.2500E+00  0.2500E+00
    -20.627  0.0000E+00  0.0000E+00  0.2500E+00  0.2500E+00
    -20.391  0.0000E+00  0.0000E+00  0.2500E+00  0.2500E+00
    -20.156  0.0000E+00  0.0000E+00  0.2500E+00  0.2500E+00
    -19.920  0.0000E+00  0.0000E+00  0.2500E+00  0.2500E+00
    -19.684  0.0000E+00  0.0000E+00  0.2500E+00  0.2500E+00
    -19.449  0.0000E+00  0.0000E+00  0.2500E+00  0.2500E+00
    -19.213  0.0000E+00  0.0000E+00  0.2500E+00  0.2500E+00
    -18.978  0.0000E+00  0.0000E+00  0.2500E+00  0.2500E+00
    -18.742  0.0000E+00  0.0000E+00  0.2500E+00  0.2500E+00
    -18.507  0.0000E+00  0.0000E+00  0.2500E+00  0.2500E+00
    -18.271  0.0000E+00  0.0000E+00  0.2500E+00  0.2500E+00
    -18.036  0.0000E+00  0.0000E+00  0.2500E+00  0.2500E+00
    -17.800  0.0000E+00  0.0000E+00  0.2500E+00  0.2500E+00
    -17.565  0.0000E+00  0.0000E+00  0.2500E+00  0.2500E+00
    -17.329  0.4327E-15  0.4248E-15  0.2500E+00  0.2500E+00
    -17.094  0.7227E-07  0.7153E-07  0.2500E+00  0.2500E+00
    -16.858  0.4799E-03  0.4779E-03  0.2501E+00  0.2501E+00
    -16.622  0.8565E-02  0.8545E-02  0.2521E+00  0.2521E+00
    -16.387  0.2029E-01  0.2028E-01  0.2569E+00  0.2569E+00
    -16.151  0.3581E-01  0.3582E-01  0.2653E+00  0.2653E+00
    -15.916  0.5675E-01  0.5674E-01  0.2787E+00  0.2787E+00
    -15.680  0.6989E-01  0.6990E-01  0.2952E+00  0.2952E+00
    -15.445  0.4556E-01  0.4553E-01  0.3059E+00  0.3059E+00
    -15.209  0.1328E+00  0.1324E+00  0.3372E+00  0.3371E+00
    -14.974  0.1559E+00  0.1562E+00  0.3739E+00  0.3739E+00
    -14.738  0.4426E-01  0.4433E-01  0.3843E+00  0.3843E+00
    -14.503  0.4408E-01  0.4409E-01  0.3947E+00  0.3947E+00
    -14.267  0.1005E+00  0.1005E+00  0.4184E+00  0.4184E+00
    -14.031  0.2233E-01  0.2222E-01  0.4236E+00  0.4236E+00
    -13.796  0.2338E-01  0.2327E-01  0.4292E+00  0.4291E+00
    -13.560  0.9812E-01  0.9833E-01  0.4523E+00  0.4523E+00
    -13.325  0.1583E+00  0.1583E+00  0.4895E+00  0.4895E+00
    -13.089  0.1552E+00  0.1552E+00  0.5261E+00  0.5261E+00
    -12.854  0.7852E-01  0.7852E-01  0.5446E+00  0.5446E+00
    -12.618  0.2283E-01  0.2283E-01  0.5500E+00  0.5500E+00
    -12.383  0.6897E-04  0.6897E-04  0.5500E+00  0.5500E+00
    -12.147  0.4052E-10  0.4052E-10  0.5500E+00  0.5500E+00
    -11.912  0.3234E-09  0.0000E+00  0.5500E+00  0.5500E+00
    -11.676  0.1967E-03  0.0000E+00  0.5500E+00  0.5500E+00
    -11.441  0.9288E-02  0.0000E+00  0.5522E+00  0.5500E+00
    -11.205  0.1129E-02  0.1392E-13  0.5525E+00  0.5500E+00
    -10.969  0.2501E-07  0.1310E-05  0.5525E+00  0.5500E+00
    -10.734  0.1414E-16  0.3915E-02  0.5525E+00  0.5509E+00
    -10.498  0.0000E+00  0.6683E-02  0.5525E+00  0.5525E+00
    -10.263  0.0000E+00  0.1449E-04  0.5525E+00  0.5525E+00
    -10.027  0.0000E+00  0.1321E-11  0.5525E+00  0.5525E+00
     -9.792  0.0000E+00  0.0000E+00  0.5525E+00  0.5525E+00
     -9.556  0.0000E+00  0.0000E+00  0.5525E+00  0.5525E+00
     -9.321  0.0000E+00  0.0000E+00  0.5525E+00  0.5525E+00
     -9.085  0.0000E+00  0.0000E+00  0.5525E+00  0.5525E+00
     -8.850  0.0000E+00  0.0000E+00  0.5525E+00  0.5525E+00
     -8.614  0.0000E+00  0.0000E+00  0.5525E+00  0.5525E+00
     -8.378  0.0000E+00  0.0000E+00  0.5525E+00  0.5525E+00
     -8.143  0.0000E+00  0.0000E+00  0.5525E+00  0.5525E+00
     -7.907  0.0000E+00  0.0000E+00  0.5525E+00  0.5525E+00
     -7.672  0.0000E+00  0.0000E+00  0.5525E+00  0.5525E+00
     -7.436  0.0000E+00  0.0000E+00  0.5525E+00  0.5525E+00
     -7.201  0.0000E+00  0.0000E+00  0.5525E+00  0.5525E+00
     -6.965  0.0000E+00  0.0000E+00  0.5525E+00  0.5525E+00
     -6.730  0.0000E+00  0.0000E+00  0.5525E+00  0.5525E+00
     -6.494  0.0000E+00  0.0000E+00  0.5525E+00  0.5525E+00
     -6.259  0.0000E+00  0.0000E+00  0.5525E+00  0.5525E+00
     -6.023  0.0000E+00  0.0000E+00  0.5525E+00  0.5525E+00
     -5.788  0.0000E+00  0.0000E+00  0.5525E+00  0.5525E+00
     -5.552  0.0000E+00  0.0000E+00  0.5525E+00  0.5525E+00
     -5.316  0.1923E-08  0.4124E-17  0.5525E+00  0.5525E+00
     -5.081  0.6076E-03  0.1572E-07  0.5526E+00  0.5525E+00
     -4.845  0.1895E-01  0.1431E-02  0.5571E+00  0.5528E+00
     -4.610  0.1670E-02  0.1907E-01  0.5575E+00  0.5573E+00
     -4.374  0.2382E-07  0.7257E-03  0.5575E+00  0.5575E+00
     -4.139  0.9365E-14  0.2900E-08  0.5575E+00  0.5575E+00
     -3.903  0.3860E-06  0.3826E-06  0.5575E+00  0.5575E+00
     -3.668  0.8873E-03  0.8846E-03  0.5577E+00  0.5577E+00
     -3.432  0.1272E-01  0.1271E-01  0.5607E+00  0.5607E+00
     -3.197  0.3360E-01  0.3359E-01  0.5686E+00  0.5686E+00
     -2.961  0.7371E-01  0.7369E-01  0.5860E+00  0.5860E+00
     -2.725  0.9119E-01  0.9117E-01  0.6075E+00  0.6074E+00
     -2.490  0.1106E+00  0.1106E+00  0.6335E+00  0.6335E+00
     -2.254  0.1081E+00  0.1082E+00  0.6590E+00  0.6590E+00
     -2.019  0.1114E+00  0.1114E+00  0.6852E+00  0.6852E+00
     -1.783  0.1600E+00  0.1600E+00  0.7229E+00  0.7229E+00
     -1.548  0.1325E+00  0.1326E+00  0.7542E+00  0.7541E+00
     -1.312  0.8204E-01  0.8187E-01  0.7735E+00  0.7734E+00
     -1.077  0.8480E-01  0.8482E-01  0.7935E+00  0.7934E+00
     -0.841  0.8610E-01  0.8557E-01  0.8137E+00  0.8135E+00
     -0.606  0.7249E-01  0.7266E-01  0.8308E+00  0.8306E+00
     -0.370  0.9900E-01  0.9899E-01  0.8541E+00  0.8540E+00
     -0.135  0.9213E-01  0.9074E-01  0.8758E+00  0.8753E+00
      0.101  0.1418E+00  0.1357E+00  0.9092E+00  0.9073E+00
      0.337  0.1488E+00  0.1472E+00  0.9443E+00  0.9420E+00
      0.572  0.1075E+00  0.1068E+00  0.9696E+00  0.9671E+00
      0.808  0.8071E-01  0.8059E-01  0.9886E+00  0.9861E+00
      1.043  0.4953E-01  0.4954E-01  0.1000E+01  0.9978E+00
      1.279  0.2899E-01  0.2899E-01  0.1007E+01  0.1005E+01
      1.514  0.1718E-02  0.1718E-02  0.1008E+01  0.1005E+01
      1.750  0.4266E-02  0.4266E-02  0.1009E+01  0.1006E+01
      1.985  0.5065E-02  0.5075E-02  0.1010E+01  0.1007E+01
      2.221  0.1185E-02  0.7425E-02  0.1010E+01  0.1009E+01
      2.456  0.5678E-04  0.4419E-02  0.1010E+01  0.1010E+01
      2.692  0.8674E-04  0.8835E-04  0.1010E+01  0.1010E+01
      2.928  0.1077E-02  0.1077E-02  0.1010E+01  0.1010E+01
      3.163  0.3152E-02  0.3145E-02  0.1011E+01  0.1011E+01
      3.399  0.1716E-01  0.1716E-01  0.1015E+01  0.1015E+01
      3.634  0.2965E-01  0.2889E-01  0.1022E+01  0.1022E+01
      3.870  0.4658E-01  0.4587E-01  0.1033E+01  0.1033E+01
      4.105  0.5048E-01  0.5073E-01  0.1045E+01  0.1045E+01
      4.341  0.5914E-01  0.5980E-01  0.1059E+01  0.1059E+01
      4.576  0.9597E-01  0.9544E-01  0.1081E+01  0.1081E+01
      4.812  0.1164E+00  0.1159E+00  0.1109E+01  0.1108E+01
      5.047  0.1143E+00  0.1154E+00  0.1136E+01  0.1136E+01
      5.283  0.6412E-01  0.6411E-01  0.1151E+01  0.1151E+01
      5.518  0.5352E-01  0.5086E-01  0.1163E+01  0.1163E+01
      5.754  0.5781E-01  0.5727E-01  0.1177E+01  0.1176E+01
      5.990  0.4958E-01  0.5011E-01  0.1189E+01  0.1188E+01
      6.225  0.4401E-01  0.4286E-01  0.1199E+01  0.1198E+01
      6.461  0.4350E-01  0.4193E-01  0.1209E+01  0.1208E+01
      6.696  0.4761E-01  0.4774E-01  0.1221E+01  0.1219E+01
      6.932  0.4226E-01  0.4462E-01  0.1231E+01  0.1230E+01
      7.167  0.4486E-01  0.4513E-01  0.1241E+01  0.1240E+01
      7.403  0.5483E-01  0.4981E-01  0.1254E+01  0.1252E+01
      7.638  0.6036E-01  0.6214E-01  0.1268E+01  0.1267E+01
      7.874  0.4281E-01  0.4557E-01  0.1278E+01  0.1277E+01
      8.109  0.8012E-01  0.7666E-01  0.1297E+01  0.1296E+01
      8.345  0.7581E-01  0.7733E-01  0.1315E+01  0.1314E+01
      8.581  0.8866E-01  0.9042E-01  0.1336E+01  0.1335E+01
      8.816  0.2773E-01  0.3144E-01  0.1342E+01  0.1342E+01
      9.052  0.9505E-04  0.1351E-03  0.1342E+01  0.1342E+01
      9.287  0.4772E-10  0.8570E-10  0.1343E+01  0.1343E+01
      9.523  0.0000E+00  0.0000E+00  0.1343E+01  0.1343E+01
      9.758  0.0000E+00  0.0000E+00  0.1343E+01  0.1343E+01
      9.994  0.0000E+00  0.0000E+00  0.1343E+01  0.1343E+01
     10.229  0.0000E+00  0.0000E+00  0.1343E+01  0.1343E+01
     10.465  0.0000E+00  0.0000E+00  0.1343E+01  0.1343E+01
     10.700  0.0000E+00  0.0000E+00  0.1343E+01  0.1343E+01
     10.936  0.0000E+00  0.0000E+00  0.1343E+01  0.1343E+01
     11.171  0.0000E+00  0.0000E+00  0.1343E+01  0.1343E+01
     11.407  0.0000E+00  0.0000E+00  0.1343E+01  0.1343E+01
     11.643  0.0000E+00  0.0000E+00  0.1343E+01  0.1343E+01
     11.878  0.0000E+00  0.0000E+00  0.1343E+01  0.1343E+01
