       N       E                     dE             d eps       ncg     rms          rms(c)
DAV:   1     0.100993389507E+05    0.10099E+05   -0.39221E+05 10821   0.151E+03
DAV:   2     0.798312996679E+03   -0.93010E+04   -0.86626E+04 11469   0.457E+02
DAV:   3    -0.818700433970E+03   -0.16170E+04   -0.15905E+04 13113   0.189E+02
DAV:   4    -0.976026056800E+03   -0.15733E+03   -0.15679E+03 16647   0.556E+01
DAV:   5    -0.990421823623E+03   -0.14396E+02   -0.14388E+02 18258   0.132E+01    0.131E+02
DAV:   6    -0.722386544939E+03    0.26804E+03   -0.11944E+03 15279   0.713E+01    0.758E+01
DAV:   7    -0.733055420346E+03   -0.10669E+02   -0.25859E+02 15243   0.321E+01    0.571E+01
DAV:   8    -0.717863195990E+03    0.15192E+02   -0.52623E+01 14838   0.173E+01    0.275E+01
DAV:   9    -0.714904785287E+03    0.29584E+01   -0.20004E+01 14613   0.869E+00    0.207E+01
DAV:  10    -0.720078452315E+03   -0.51737E+01   -0.66794E+00 14613   0.529E+00    0.184E+01
DAV:  11    -0.739843354155E+03   -0.19765E+02   -0.10645E+01 14019   0.962E+00    0.164E+01
DAV:  12    -0.759253957579E+03   -0.19411E+02   -0.17332E+01 13533   0.116E+01    0.153E+01
DAV:  13    -0.769924179263E+03   -0.10670E+02   -0.35399E+01 14199   0.108E+01    0.122E+01
DAV:  14    -0.784378117064E+03   -0.14454E+02   -0.13061E+01 13842   0.957E+00    0.101E+01
DAV:  15    -0.798252958208E+03   -0.13875E+02   -0.23770E+01 13227   0.674E+00    0.968E+00
DAV:  16    -0.800729129372E+03   -0.24762E+01   -0.14931E+01 13839   0.655E+00    0.547E+00
DAV:  17    -0.804227898387E+03   -0.34988E+01   -0.36539E+00 13290   0.347E+00    0.372E+00
DAV:  18    -0.805605459030E+03   -0.13776E+01   -0.10501E+00 14136   0.185E+00    0.264E+00
DAV:  19    -0.807235994297E+03   -0.16305E+01   -0.46975E-01 13218   0.147E+00    0.197E+00
DAV:  20    -0.808122375926E+03   -0.88638E+00   -0.24667E-01 13731   0.783E-01    0.153E+00
DAV:  21    -0.808984870948E+03   -0.86250E+00   -0.14950E-01 12678   0.558E-01    0.121E+00
DAV:  22    -0.809680618755E+03   -0.69575E+00   -0.24119E-01 13026   0.849E-01    0.931E-01
DAV:  23    -0.810148042841E+03   -0.46742E+00   -0.22710E-01 12666   0.901E-01    0.851E-01
DAV:  24    -0.810428132884E+03   -0.28009E+00   -0.15769E-01 12741   0.533E-01    0.502E-01
DAV:  25    -0.811231553443E+03   -0.80342E+00   -0.16525E-01 14034   0.863E-01    0.529E-01
DAV:  26    -0.811558201451E+03   -0.32665E+00   -0.58997E-02 14070   0.380E-01    0.507E-01
DAV:  27    -0.811568880026E+03   -0.10679E-01   -0.10916E-02 14424   0.197E-01    0.354E-01
DAV:  28    -0.811580474804E+03   -0.11595E-01   -0.27002E-03 14991   0.136E-01    0.278E-01
DAV:  29    -0.811582682252E+03   -0.22074E-02   -0.19348E-03 17430   0.470E-01    0.168E-01
DAV:  30    -0.811583610552E+03   -0.92830E-03   -0.66500E-03 14802   0.336E-01    0.102E-01
DAV:  31    -0.811584839748E+03   -0.12292E-02   -0.40797E-03 13155   0.799E-02    0.779E-02
DAV:  32    -0.811585622195E+03   -0.78245E-03   -0.77954E-04 14154   0.471E-02    0.546E-02
DAV:  33    -0.811586156320E+03   -0.53412E-03   -0.13922E-04 13389   0.505E-02    0.320E-02
DAV:  34    -0.811586455560E+03   -0.29924E-03   -0.12130E-04 13389   0.497E-02    0.293E-02
DAV:  35    -0.811586622820E+03   -0.16726E-03   -0.13460E-04 12489   0.201E-02    0.234E-02
DAV:  36    -0.811586653187E+03   -0.30367E-04   -0.36022E-05 10797   0.217E-02    0.100E-02
DAV:  37    -0.811586830121E+03   -0.17693E-03   -0.12253E-05  8583   0.228E-02    0.156E-02
DAV:  38    -0.811586904297E+03   -0.74176E-04   -0.11663E-05  8907   0.168E-02    0.403E-03
DAV:  39    -0.811586987440E+03   -0.83143E-04   -0.66800E-06  8268   0.103E-02    0.766E-03
DAV:  40    -0.811587023772E+03   -0.36332E-04   -0.55943E-06  8574   0.511E-03    0.385E-03
DAV:  41    -0.811587006239E+03    0.17533E-04   -0.73224E-06  7422   0.360E-03    0.255E-03
DAV:  42    -0.811586983964E+03    0.22275E-04   -0.86895E-06  8079   0.265E-03    0.243E-03
DAV:  43    -0.811587010085E+03   -0.26120E-04   -0.15629E-06  7998   0.126E-03    0.229E-03
DAV:  44    -0.811586950718E+03    0.59367E-04   -0.82613E-06  7521   0.174E-03    0.300E-03
DAV:  45    -0.811586958108E+03   -0.73899E-05   -0.56066E-07  7548   0.486E-03
   1 F= -.81158696E+03 E0= -.81158074E+03  d E =-.811587E+03  mag=     0.9904
       N       E                     dE             d eps       ncg     rms          rms(c)
DAV:   1    -0.811481991298E+03    0.10496E+00   -0.72328E+01 11574   0.169E+01    0.208E+00
DAV:   2    -0.811799204475E+03   -0.31721E+00   -0.38971E+00 11859   0.389E+00    0.174E+00
DAV:   3    -0.811843178665E+03   -0.43974E-01   -0.55655E-01 14190   0.113E+00    0.900E-01
DAV:   4    -0.811838603685E+03    0.45750E-02   -0.41130E-02 15558   0.445E-01    0.634E-01
DAV:   5    -0.811836293666E+03    0.23100E-02   -0.11582E-02 13182   0.315E-01    0.229E-01
DAV:   6    -0.811836864077E+03   -0.57041E-03   -0.40288E-03 15405   0.187E-01    0.105E-01
DAV:   7    -0.811837526389E+03   -0.66231E-03   -0.18754E-03 14199   0.753E-02    0.608E-02
DAV:   8    -0.811837931812E+03   -0.40542E-03   -0.21565E-04 15009   0.315E-02    0.341E-02
DAV:   9    -0.811838371390E+03   -0.43958E-03   -0.70518E-05 11409   0.163E-02    0.157E-02
DAV:  10    -0.811838603986E+03   -0.23260E-03   -0.21818E-05 10050   0.871E-03    0.925E-03
DAV:  11    -0.811838777110E+03   -0.17312E-03   -0.96373E-06  8385   0.631E-03    0.643E-03
DAV:  12    -0.811838930424E+03   -0.15331E-03   -0.72940E-06  8358   0.161E-02    0.504E-03
DAV:  13    -0.811839039423E+03   -0.10900E-03   -0.96827E-06  8754   0.927E-03    0.394E-03
DAV:  14    -0.811839127062E+03   -0.87639E-04   -0.60888E-06  8493   0.637E-03    0.289E-03
DAV:  15    -0.811839186816E+03   -0.59754E-04   -0.49788E-06  8196   0.345E-03    0.256E-03
DAV:  16    -0.811839219141E+03   -0.32325E-04   -0.19399E-06  8277   0.221E-03    0.196E-03
DAV:  17    -0.811839244747E+03   -0.25606E-04   -0.13832E-06  8205   0.182E-03    0.127E-03
DAV:  18    -0.811839255052E+03   -0.10306E-04   -0.79330E-07  8061   0.138E-03    0.808E-04
DAV:  19    -0.811839261732E+03   -0.66795E-05   -0.52555E-07  7593   0.969E-04
   2 F= -.81183926E+03 E0= -.81183926E+03  d E =-.252304E+00  mag=     0.9992
       N       E                     dE             d eps       ncg     rms          rms(c)
DAV:   1    -0.811838021306E+03    0.12337E-02   -0.17952E+00 11775   0.269E+00    0.319E-01
DAV:   2    -0.811844469759E+03   -0.64485E-02   -0.87818E-02 11985   0.691E-01    0.290E-01
DAV:   3    -0.811845580005E+03   -0.11102E-02   -0.16272E-02 14127   0.230E-01    0.147E-01
DAV:   4    -0.811845360222E+03    0.21978E-03   -0.10719E-03 16611   0.119E-01    0.106E-01
DAV:   5    -0.811845281527E+03    0.78695E-04   -0.52895E-04 13146   0.939E-02    0.370E-02
DAV:   6    -0.811845368030E+03   -0.86502E-04   -0.66555E-04 14055   0.453E-02    0.233E-02
DAV:   7    -0.811845393568E+03   -0.25538E-04   -0.10173E-04 14019   0.156E-02    0.164E-02
DAV:   8    -0.811845415069E+03   -0.21501E-04   -0.54210E-06  8124   0.666E-03    0.988E-03
DAV:   9    -0.811845438395E+03   -0.23326E-04   -0.54723E-06  8241   0.759E-03    0.429E-03
DAV:  10    -0.811845446509E+03   -0.81138E-05   -0.38383E-06  8196   0.431E-03
   3 F= -.81184545E+03 E0= -.81184545E+03  d E =-.258488E+00  mag=     0.9996
       N       E                     dE             d eps       ncg     rms          rms(c)
DAV:   1    -0.811779419794E+03    0.66019E-01   -0.46101E+01 11490   0.112E+01    0.179E+00
DAV:   2    -0.811930192433E+03   -0.15077E+00   -0.18297E+00 11949   0.251E+00    0.128E+00
DAV:   3    -0.811949451766E+03   -0.19259E-01   -0.21219E-01 14685   0.845E-01    0.744E-01
DAV:   4    -0.811945414467E+03    0.40373E-02   -0.21758E-02 15117   0.377E-01    0.536E-01
DAV:   5    -0.811943622072E+03    0.17924E-02   -0.80387E-03 13299   0.321E-01    0.154E-01
DAV:   6    -0.811944886710E+03   -0.12646E-02   -0.67150E-03 14073   0.142E-01    0.907E-02
DAV:   7    -0.811945367427E+03   -0.48072E-03   -0.98614E-04 14829   0.482E-02    0.544E-02
DAV:   8    -0.811945783997E+03   -0.41657E-03   -0.12687E-04 14271   0.273E-02    0.308E-02
DAV:   9    -0.811946068690E+03   -0.28469E-03   -0.56431E-05 12381   0.166E-02    0.123E-02
DAV:  10    -0.811946190486E+03   -0.12180E-03   -0.14156E-05  8439   0.762E-03    0.687E-03
DAV:  11    -0.811946312843E+03   -0.12236E-03   -0.64690E-06  8484   0.429E-03    0.473E-03
DAV:  12    -0.811946395694E+03   -0.82851E-04   -0.65928E-06  8268   0.321E-03    0.336E-03
DAV:  13    -0.811946462051E+03   -0.66357E-04   -0.62471E-06  8547   0.285E-03    0.243E-03
DAV:  14    -0.811946513661E+03   -0.51610E-04   -0.64679E-06  8331   0.337E-03    0.189E-03
DAV:  15    -0.811946565373E+03   -0.51712E-04   -0.22115E-06  8421   0.594E-03    0.138E-03
DAV:  16    -0.811946580589E+03   -0.15215E-04   -0.21613E-06  8187   0.215E-03    0.158E-03
DAV:  17    -0.811946584588E+03   -0.39993E-05   -0.63386E-07  7944   0.123E-03
   4 F= -.81194658E+03 E0= -.81194657E+03  d E =-.101138E+00  mag=     0.9999
       N       E                     dE             d eps       ncg     rms          rms(c)
DAV:   1    -0.811946534066E+03    0.46523E-04   -0.39652E-02 11769   0.331E-01    0.491E-02
DAV:   2    -0.811946608418E+03   -0.74352E-04   -0.14852E-03 12138   0.703E-02    0.368E-02
DAV:   3    -0.811946626656E+03   -0.18238E-04   -0.17414E-04 14091   0.220E-02    0.202E-02
DAV:   4    -0.811946620570E+03    0.60851E-05   -0.13503E-05  8988   0.103E-02
   5 F= -.81194662E+03 E0= -.81194660E+03  d E =-.101174E+00  mag=     1.0000
       N       E                     dE             d eps       ncg     rms          rms(c)
DAV:   1    -0.811876087821E+03    0.70539E-01   -0.27341E+01 11442   0.754E+00    0.165E+00
DAV:   2    -0.811980878425E+03   -0.10479E+00   -0.11327E+00 11778   0.147E+00    0.979E-01
DAV:   3    -0.811997045119E+03   -0.16167E-01   -0.78495E-02 14964   0.412E-01    0.609E-01
DAV:   4    -0.811994768104E+03    0.22770E-02   -0.75238E-03 15054   0.161E-01    0.412E-01
DAV:   5    -0.811995150646E+03   -0.38254E-03   -0.30162E-03 13272   0.137E-01    0.116E-01
DAV:   6    -0.811995818137E+03   -0.66749E-03   -0.11536E-03 13695   0.546E-02    0.489E-02
DAV:   7    -0.811996267923E+03   -0.44979E-03   -0.15338E-04 12687   0.212E-02    0.251E-02
DAV:   8    -0.811996534949E+03   -0.26703E-03   -0.30362E-05 10041   0.139E-02    0.145E-02
DAV:   9    -0.811996766818E+03   -0.23187E-03   -0.16851E-05  8709   0.818E-03    0.600E-03
DAV:  10    -0.811996863812E+03   -0.96994E-04   -0.50230E-06  8430   0.495E-03    0.403E-03
DAV:  11    -0.811996963742E+03   -0.99930E-04   -0.37307E-06  8079   0.330E-03    0.302E-03
DAV:  12    -0.811997024216E+03   -0.60474E-04   -0.20482E-06  8124   0.241E-03    0.244E-03
DAV:  13    -0.811997117183E+03   -0.92967E-04   -0.40785E-06  8295   0.228E-03    0.182E-03
DAV:  14    -0.811997179999E+03   -0.62816E-04   -0.28921E-06  8277   0.196E-03    0.141E-03
DAV:  15    -0.811997212520E+03   -0.32521E-04   -0.18890E-06  8241   0.167E-03    0.998E-04
DAV:  16    -0.811997233758E+03   -0.21238E-04   -0.17673E-06  8223   0.151E-03    0.645E-04
DAV:  17    -0.811997240483E+03   -0.67254E-05   -0.86339E-07  8133   0.113E-03
   6 F= -.81199724E+03 E0= -.81199705E+03  d E =-.506199E-01  mag=     1.0001
       N       E                     dE             d eps       ncg     rms          rms(c)
DAV:   1    -0.811996369685E+03    0.86407E-03   -0.57616E-01 11532   0.109E+00    0.205E-01
DAV:   2    -0.811998266250E+03   -0.18966E-02   -0.21853E-02 12273   0.206E-01    0.133E-01
DAV:   3    -0.811998678190E+03   -0.41194E-03   -0.14723E-03 14937   0.553E-02    0.734E-02
DAV:   4    -0.811998649122E+03    0.29068E-04   -0.17156E-04 12885   0.247E-02    0.430E-02
DAV:   5    -0.811998700564E+03   -0.51442E-04   -0.62176E-05 11148   0.174E-02    0.127E-02
DAV:   6    -0.811998741011E+03   -0.40447E-04   -0.13366E-05  8799   0.678E-03    0.652E-03
DAV:   7    -0.811998768282E+03   -0.27271E-04   -0.31615E-06  8187   0.358E-03    0.302E-03
DAV:   8    -0.811998782979E+03   -0.14697E-04   -0.15531E-06  8034   0.252E-03    0.176E-03
DAV:   9    -0.811998788814E+03   -0.58349E-05   -0.73926E-07  7863   0.182E-03
   7 F= -.81199879E+03 E0= -.81199864E+03  d E =-.521682E-01  mag=     1.0001
       N       E                     dE             d eps       ncg     rms          rms(c)
DAV:   1    -0.811999490148E+03   -0.70717E-03   -0.12564E+01 11484   0.569E+00    0.104E+00
DAV:   2    -0.812048136842E+03   -0.48647E-01   -0.52660E-01 12075   0.106E+00    0.617E-01
DAV:   3    -0.812055667799E+03   -0.75310E-02   -0.34083E-02 15405   0.267E-01    0.369E-01
DAV:   4    -0.812054727867E+03    0.93993E-03   -0.27835E-03 15387   0.122E-01    0.242E-01
DAV:   5    -0.812054684594E+03    0.43273E-04   -0.13279E-03 13632   0.108E-01    0.737E-02
DAV:   6    -0.812055015744E+03   -0.33115E-03   -0.76592E-04 14379   0.486E-02    0.337E-02
DAV:   7    -0.812055172947E+03   -0.15720E-03   -0.11869E-04 13119   0.168E-02    0.198E-02
DAV:   8    -0.812055336699E+03   -0.16375E-03   -0.17172E-05  8565   0.920E-03    0.102E-02
DAV:   9    -0.812055432821E+03   -0.96122E-04   -0.80394E-06  8511   0.650E-03    0.526E-03
DAV:  10    -0.812055489547E+03   -0.56726E-04   -0.41042E-06  8052   0.358E-03    0.284E-03
DAV:  11    -0.812055534752E+03   -0.45205E-04   -0.30233E-06  8268   0.249E-03    0.224E-03
DAV:  12    -0.812055581631E+03   -0.46878E-04   -0.28949E-06  8187   0.264E-03    0.153E-03
DAV:  13    -0.812055666246E+03   -0.84615E-04   -0.89779E-06  8619   0.271E-03    0.164E-03
DAV:  14    -0.812055673831E+03   -0.75857E-05   -0.86377E-07  8070   0.188E-03
   8 F= -.81205567E+03 E0= -.81205567E+03  d E =-.568850E-01  mag=     1.0000
       N       E                     dE             d eps       ncg     rms          rms(c)
DAV:   1    -0.811946649851E+03    0.10902E+00   -0.30883E+01 11436   0.899E+00    0.183E+00
DAV:   2    -0.812073317753E+03   -0.12667E+00   -0.13525E+00 11760   0.169E+00    0.103E+00
DAV:   3    -0.812090852774E+03   -0.17535E-01   -0.87504E-02 15171   0.442E-01    0.645E-01
DAV:   4    -0.812088830174E+03    0.20226E-02   -0.68149E-03 15378   0.199E-01    0.452E-01
DAV:   5    -0.812088509368E+03    0.32081E-03   -0.31410E-03 13659   0.197E-01    0.138E-01
DAV:   6    -0.812089241973E+03   -0.73261E-03   -0.22735E-03 13974   0.982E-02    0.557E-02
DAV:   7    -0.812089687961E+03   -0.44599E-03   -0.48078E-04 13506   0.349E-02    0.327E-02
DAV:   8    -0.812089944802E+03   -0.25684E-03   -0.64724E-05 12291   0.179E-02    0.191E-02
DAV:   9    -0.812090168892E+03   -0.22409E-03   -0.18865E-05  9141   0.100E-02    0.101E-02
DAV:  10    -0.812090332530E+03   -0.16364E-03   -0.91319E-06  8430   0.555E-03    0.474E-03
DAV:  11    -0.812090417237E+03   -0.84707E-04   -0.44125E-06  8340   0.342E-03    0.375E-03
DAV:  12    -0.812090511249E+03   -0.94012E-04   -0.44948E-06  8448   0.324E-03    0.274E-03
DAV:  13    -0.812090610776E+03   -0.99527E-04   -0.59587E-06  8763   0.403E-03    0.186E-03
DAV:  14    -0.812090710257E+03   -0.99481E-04   -0.86917E-06  8664   0.282E-03    0.191E-03
DAV:  15    -0.812090732261E+03   -0.22004E-04   -0.13606E-06  8259   0.318E-03    0.116E-03
DAV:  16    -0.812090748687E+03   -0.16426E-04   -0.11614E-06  8205   0.333E-03    0.865E-04
DAV:  17    -0.812090754792E+03   -0.61050E-05   -0.84295E-07  8115   0.191E-03
   9 F= -.81209075E+03 E0= -.81209075E+03  d E =-.919660E-01  mag=     1.0000
       N       E                     dE             d eps       ncg     rms          rms(c)
DAV:   1    -0.812088071144E+03    0.26775E-02   -0.11985E+01 11496   0.624E+00    0.985E-01
DAV:   2    -0.812133892141E+03   -0.45821E-01   -0.51813E-01 12084   0.123E+00    0.682E-01
DAV:   3    -0.812139527699E+03   -0.56356E-02   -0.41425E-02 15264   0.349E-01    0.384E-01
DAV:   4    -0.812138504975E+03    0.10227E-02   -0.38786E-03 15585   0.168E-01    0.269E-01
DAV:   5    -0.812138100943E+03    0.40403E-03   -0.20533E-03 13560   0.138E-01    0.732E-02
DAV:   6    -0.812138340047E+03   -0.23910E-03   -0.80162E-04 14748   0.537E-02    0.408E-02
DAV:   7    -0.812138550430E+03   -0.21038E-03   -0.11909E-04 13884   0.212E-02    0.237E-02
DAV:   8    -0.812138699855E+03   -0.14942E-03   -0.24313E-05  9663   0.111E-02    0.127E-02
DAV:   9    -0.812138808259E+03   -0.10840E-03   -0.10800E-05  8655   0.826E-03    0.563E-03
DAV:  10    -0.812138860197E+03   -0.51938E-04   -0.44952E-06  8322   0.439E-03    0.289E-03
DAV:  11    -0.812138901867E+03   -0.41669E-04   -0.26958E-06  8178   0.273E-03    0.234E-03
DAV:  12    -0.812138919244E+03   -0.17378E-04   -0.27037E-06  7719   0.219E-03    0.151E-03
DAV:  13    -0.812138943632E+03   -0.24388E-04   -0.39831E-06  8205   0.184E-03    0.116E-03
DAV:  14    -0.812138961743E+03   -0.18111E-04   -0.94204E-07  7971   0.153E-03    0.908E-04
DAV:  15    -0.812138954187E+03    0.75557E-05   -0.29592E-06  7719   0.167E-03
  10 F= -.81213895E+03 E0= -.81213895E+03  d E =-.481994E-01  mag=     1.0000
       N       E                     dE             d eps       ncg     rms          rms(c)
DAV:   1    -0.812097585581E+03    0.41376E-01   -0.13798E+01 11433   0.669E+00    0.108E+00
DAV:   2    -0.812151118739E+03   -0.53533E-01   -0.60368E-01 11967   0.129E+00    0.744E-01
DAV:   3    -0.812157134191E+03   -0.60155E-02   -0.43759E-02 15270   0.352E-01    0.420E-01
DAV:   4    -0.812155915612E+03    0.12186E-02   -0.43579E-03 15333   0.170E-01    0.293E-01
DAV:   5    -0.812155513391E+03    0.40222E-03   -0.23286E-03 13722   0.146E-01    0.799E-02
DAV:   6    -0.812155773311E+03   -0.25992E-03   -0.87129E-04 14721   0.569E-02    0.427E-02
DAV:   7    -0.812156013520E+03   -0.24021E-03   -0.14008E-04 14523   0.222E-02    0.248E-02
DAV:   8    -0.812156174821E+03   -0.16130E-03   -0.27302E-05  9942   0.118E-02    0.133E-02
DAV:   9    -0.812156290806E+03   -0.11598E-03   -0.11678E-05  8772   0.872E-03    0.587E-03
DAV:  10    -0.812156345155E+03   -0.54350E-04   -0.47688E-06  8448   0.442E-03    0.300E-03
DAV:  11    -0.812156389747E+03   -0.44591E-04   -0.25877E-06  8169   0.273E-03    0.240E-03
DAV:  12    -0.812156432354E+03   -0.42607E-04   -0.20152E-06  8160   0.222E-03    0.153E-03
DAV:  13    -0.812156456873E+03   -0.24520E-04   -0.34488E-06  7953   0.190E-03    0.120E-03
DAV:  14    -0.812156449266E+03    0.76078E-05   -0.26588E-06  8007   0.180E-03
  11 F= -.81215645E+03 E0= -.81215645E+03  d E =-.656945E-01  mag=     1.0000
       N       E                     dE             d eps       ncg     rms          rms(c)
DAV:   1    -0.812148219556E+03    0.82373E-02   -0.11353E+01 11568   0.604E+00    0.953E-01
DAV:   2    -0.812192470903E+03   -0.44251E-01   -0.49325E-01 11520   0.113E+00    0.608E-01
DAV:   3    -0.812196095666E+03   -0.36248E-02   -0.27721E-02 15153   0.286E-01    0.366E-01
DAV:   4    -0.812195122456E+03    0.97321E-03   -0.30201E-03 15162   0.160E-01    0.221E-01
DAV:   5    -0.812195337148E+03   -0.21469E-03   -0.14640E-03 14010   0.116E-01    0.599E-02
DAV:   6    -0.812195547093E+03   -0.20995E-03   -0.60349E-04 13587   0.453E-02    0.317E-02
DAV:   7    -0.812195672617E+03   -0.12552E-03   -0.69508E-05 12867   0.160E-02    0.185E-02
DAV:   8    -0.812195724657E+03   -0.52040E-04   -0.15005E-05  8241   0.931E-03    0.952E-03
DAV:   9    -0.812195783125E+03   -0.58468E-04   -0.78497E-06  8223   0.682E-03    0.385E-03
DAV:  10    -0.812195801960E+03   -0.18835E-04   -0.29740E-06  8169   0.366E-03    0.240E-03
DAV:  11    -0.812195821270E+03   -0.19310E-04   -0.18051E-06  7998   0.253E-03    0.172E-03
DAV:  12    -0.812195837354E+03   -0.16084E-04   -0.11039E-06  7998   0.187E-03    0.114E-03
DAV:  13    -0.812195850159E+03   -0.12806E-04   -0.83881E-07  7998   0.149E-03    0.855E-04
DAV:  14    -0.812195858597E+03   -0.84381E-05   -0.64614E-07  7908   0.120E-03
  12 F= -.81219586E+03 E0= -.81219585E+03  d E =-.394093E-01  mag=     1.0000
       N       E                     dE             d eps       ncg     rms          rms(c)
DAV:   1    -0.812170331799E+03    0.25518E-01   -0.87857E+00 11559   0.530E+00    0.830E-01
DAV:   2    -0.812204252689E+03   -0.33921E-01   -0.37972E-01 11610   0.991E-01    0.533E-01
DAV:   3    -0.812207126292E+03   -0.28736E-02   -0.21390E-02 15189   0.252E-01    0.318E-01
DAV:   4    -0.812206379795E+03    0.74650E-03   -0.23787E-03 14721   0.136E-01    0.188E-01
DAV:   5    -0.812206553004E+03   -0.17321E-03   -0.11330E-03 14082   0.982E-02    0.513E-02
DAV:   6    -0.812206714752E+03   -0.16175E-03   -0.42409E-04 13470   0.367E-02    0.276E-02
DAV:   7    -0.812206813749E+03   -0.98996E-04   -0.46728E-05 11598   0.133E-02    0.156E-02
DAV:   8    -0.812206886323E+03   -0.72575E-04   -0.10658E-05  8484   0.860E-03    0.812E-03
DAV:   9    -0.812206926882E+03   -0.40559E-04   -0.62144E-06  8412   0.627E-03    0.341E-03
DAV:  10    -0.812206939825E+03   -0.12942E-04   -0.25113E-06  8016   0.326E-03    0.210E-03
DAV:  11    -0.812206954398E+03   -0.14573E-04   -0.14896E-06  8052   0.240E-03    0.147E-03
DAV:  12    -0.812206966159E+03   -0.11761E-04   -0.95922E-07  7962   0.170E-03    0.994E-04
DAV:  13    -0.812206975092E+03   -0.89331E-05   -0.74403E-07  7989   0.140E-03
  13 F= -.81220698E+03 E0= -.81220694E+03  d E =-.505258E-01  mag=     0.9999
       N       E                     dE             d eps       ncg     rms          rms(c)
DAV:   1    -0.812215410125E+03   -0.84440E-02   -0.40473E+00 11577   0.371E+00    0.557E-01
DAV:   2    -0.812232560366E+03   -0.17150E-01   -0.19374E-01 11658   0.694E-01    0.377E-01
DAV:   3    -0.812233847232E+03   -0.12869E-02   -0.10234E-02 15315   0.163E-01    0.218E-01
DAV:   4    -0.812233531068E+03    0.31616E-03   -0.12905E-03 14451   0.909E-02    0.120E-01
DAV:   5    -0.812233626917E+03   -0.95849E-04   -0.61404E-04 14280   0.658E-02    0.365E-02
DAV:   6    -0.812233686910E+03   -0.59994E-04   -0.11518E-04 14001   0.223E-02    0.176E-02
DAV:   7    -0.812233737844E+03   -0.50934E-04   -0.14121E-05  8934   0.825E-03    0.960E-03
DAV:   8    -0.812233768751E+03   -0.30907E-04   -0.69418E-06  8421   0.589E-03    0.439E-03
DAV:   9    -0.812233781844E+03   -0.13093E-04   -0.28895E-06  8205   0.373E-03    0.248E-03
DAV:  10    -0.812233789150E+03   -0.73062E-05   -0.14324E-06  7845   0.238E-03
  14 F= -.81223379E+03 E0= -.81223376E+03  d E =-.268141E-01  mag=     0.9999
       N       E                     dE             d eps       ncg     rms          rms(c)
DAV:   1    -0.812193803710E+03    0.39978E-01   -0.12618E+01 11640   0.657E+00    0.101E+00
DAV:   2    -0.812248683031E+03   -0.54879E-01   -0.61283E-01 11532   0.123E+00    0.670E-01
DAV:   3    -0.812252379546E+03   -0.36965E-02   -0.32504E-02 15342   0.288E-01    0.396E-01
DAV:   4    -0.812251388332E+03    0.99121E-03   -0.38218E-03 14856   0.154E-01    0.232E-01
DAV:   5    -0.812251683066E+03   -0.29473E-03   -0.18223E-03 14073   0.116E-01    0.670E-02
DAV:   6    -0.812251815145E+03   -0.13208E-03   -0.38741E-04 14964   0.415E-02    0.305E-02
DAV:   7    -0.812251923996E+03   -0.10885E-03   -0.51600E-05 11454   0.145E-02    0.173E-02
DAV:   8    -0.812251988659E+03   -0.64663E-04   -0.16187E-05  9105   0.889E-03    0.805E-03
DAV:   9    -0.812252019192E+03   -0.30533E-04   -0.59801E-06  8313   0.569E-03    0.408E-03
DAV:  10    -0.812252033212E+03   -0.14020E-04   -0.24178E-06  8016   0.308E-03    0.252E-03
DAV:  11    -0.812252048355E+03   -0.15143E-04   -0.15664E-06  8151   0.249E-03    0.161E-03
DAV:  12    -0.812252057070E+03   -0.87152E-05   -0.94419E-07  8124   0.172E-03
  15 F= -.81225206E+03 E0= -.81225202E+03  d E =-.450820E-01  mag=     0.9999
       N       E                     dE             d eps       ncg     rms          rms(c)
DAV:   1    -0.812259218091E+03   -0.71697E-02   -0.27707E+00 11853   0.356E+00    0.468E-01
DAV:   2    -0.812274712195E+03   -0.15494E-01   -0.17818E-01 11892   0.718E-01    0.317E-01
DAV:   3    -0.812275887785E+03   -0.11756E-02   -0.12377E-02 14748   0.181E-01    0.186E-01
DAV:   4    -0.812275761163E+03    0.12662E-03   -0.12350E-03 15171   0.829E-02    0.110E-01
DAV:   5    -0.812275761966E+03   -0.80274E-06   -0.40502E-04 14469   0.608E-02    0.378E-02
DAV:   6    -0.812275786109E+03   -0.24143E-04   -0.11843E-04 14046   0.245E-02    0.169E-02
DAV:   7    -0.812275801667E+03   -0.15558E-04   -0.16120E-05  9312   0.957E-03    0.951E-03
DAV:   8    -0.812275813794E+03   -0.12127E-04   -0.62628E-06  8331   0.677E-03    0.453E-03
DAV:   9    -0.812275820486E+03   -0.66920E-05   -0.32847E-06  8097   0.424E-03
  16 F= -.81227582E+03 E0= -.81227581E+03  d E =-.237634E-01  mag=     0.9999
       N       E                     dE             d eps       ncg     rms          rms(c)
DAV:   1    -0.812163749265E+03    0.11206E+00   -0.24873E+01 11853   0.107E+01    0.151E+00
DAV:   2    -0.812306434563E+03   -0.14269E+00   -0.16333E+00 11517   0.219E+00    0.980E-01
DAV:   3    -0.812316870456E+03   -0.10436E-01   -0.11679E-01 15333   0.562E-01    0.599E-01
DAV:   4    -0.812315858977E+03    0.10115E-02   -0.10480E-02 15603   0.251E-01    0.392E-01
DAV:   5    -0.812315626137E+03    0.23284E-03   -0.34623E-03 13389   0.191E-01    0.125E-01
DAV:   6    -0.812315797162E+03   -0.17103E-03   -0.13880E-03 15261   0.922E-02    0.529E-02
DAV:   7    -0.812315873750E+03   -0.76587E-04   -0.29407E-04 14199   0.340E-02    0.284E-02
DAV:   8    -0.812315916170E+03   -0.42421E-04   -0.41634E-05 11598   0.195E-02    0.152E-02
DAV:   9    -0.812315955350E+03   -0.39180E-04   -0.21826E-05  9321   0.116E-02    0.784E-03
DAV:  10    -0.812315973464E+03   -0.18114E-04   -0.68049E-06  8133   0.621E-03    0.399E-03
DAV:  11    -0.812315994209E+03   -0.20745E-04   -0.36434E-06  8124   0.375E-03    0.273E-03
DAV:  12    -0.812316007946E+03   -0.13736E-04   -0.17116E-06  7935   0.305E-03    0.171E-03
DAV:  13    -0.812316019969E+03   -0.12024E-04   -0.14461E-06  8034   0.250E-03    0.126E-03
DAV:  14    -0.812316027285E+03   -0.73155E-05   -0.98885E-07  7971   0.211E-03
  17 F= -.81231603E+03 E0= -.81231603E+03  d E =-.639702E-01  mag=     1.0000
       N       E                     dE             d eps       ncg     rms          rms(c)
DAV:   1    -0.812299185584E+03    0.16834E-01   -0.32782E+00 11994   0.390E+00    0.506E-01
DAV:   2    -0.812317433419E+03   -0.18248E-01   -0.21100E-01 11526   0.814E-01    0.350E-01
DAV:   3    -0.812319088779E+03   -0.16554E-02   -0.16895E-02 14868   0.219E-01    0.206E-01
DAV:   4    -0.812318967482E+03    0.12130E-03   -0.16327E-03 15720   0.101E-01    0.124E-01
DAV:   5    -0.812318944679E+03    0.22802E-04   -0.49350E-04 14040   0.692E-02    0.418E-02
DAV:   6    -0.812318973818E+03   -0.29139E-04   -0.18905E-04 15162   0.319E-02    0.197E-02
DAV:   7    -0.812318986836E+03   -0.13018E-04   -0.29978E-05 10680   0.114E-02    0.115E-02
DAV:   8    -0.812318995238E+03   -0.84022E-05   -0.67494E-06  8268   0.751E-03
  18 F= -.81231900E+03 E0= -.81231900E+03  d E =-.669382E-01  mag=     1.0000
       N       E                     dE             d eps       ncg     rms          rms(c)
DAV:   1    -0.812319473617E+03   -0.48678E-03   -0.68014E+00 11811   0.491E+00    0.637E-01
DAV:   2    -0.812349665849E+03   -0.30192E-01   -0.33600E-01 11841   0.970E-01    0.437E-01
DAV:   3    -0.812351060290E+03   -0.13944E-02   -0.20479E-02 14730   0.253E-01    0.255E-01
DAV:   4    -0.812350713298E+03    0.34699E-03   -0.25303E-03 15657   0.139E-01    0.144E-01
DAV:   5    -0.812350739336E+03   -0.26038E-04   -0.11023E-03 14433   0.957E-02    0.461E-02
DAV:   6    -0.812350775215E+03   -0.35879E-04   -0.40368E-04 13713   0.375E-02    0.292E-02
DAV:   7    -0.812350782134E+03   -0.69197E-05   -0.38637E-05 11256   0.139E-02
  19 F= -.81235078E+03 E0= -.81235078E+03  d E =-.317869E-01  mag=     1.0000
       N       E                     dE             d eps       ncg     rms          rms(c)
DAV:   1    -0.812288890663E+03    0.61885E-01   -0.17330E+01 11799   0.784E+00    0.104E+00
DAV:   2    -0.812367384611E+03   -0.78494E-01   -0.87005E-01 11985   0.156E+00    0.706E-01
DAV:   3    -0.812370674373E+03   -0.32898E-02   -0.51007E-02 14901   0.401E-01    0.418E-01
DAV:   4    -0.812369790497E+03    0.88388E-03   -0.63606E-03 15351   0.218E-01    0.245E-01
DAV:   5    -0.812369770616E+03    0.19882E-04   -0.25991E-03 13794   0.152E-01    0.746E-02
DAV:   6    -0.812369860330E+03   -0.89715E-04   -0.10654E-03 13983   0.595E-02    0.456E-02
DAV:   7    -0.812369870468E+03   -0.10138E-04   -0.11080E-04 14343   0.219E-02    0.247E-02
DAV:   8    -0.812369871205E+03   -0.73708E-06   -0.24245E-05  9501   0.155E-02
  20 F= -.81236987E+03 E0= -.81236984E+03  d E =-.508760E-01  mag=     0.9999
       N       E                     dE             d eps       ncg     rms          rms(c)
DAV:   1    -0.812369767460E+03    0.10301E-03   -0.54958E+00 11772   0.442E+00    0.564E-01
DAV:   2    -0.812395060474E+03   -0.25293E-01   -0.27892E-01 11877   0.861E-01    0.394E-01
DAV:   3    -0.812395972929E+03   -0.91245E-03   -0.15377E-02 14955   0.214E-01    0.228E-01
DAV:   4    -0.812395676521E+03    0.29641E-03   -0.20345E-03 14586   0.118E-01    0.123E-01
DAV:   5    -0.812395700324E+03   -0.23803E-04   -0.82532E-04 14130   0.822E-02    0.405E-02
DAV:   6    -0.812395716391E+03   -0.16066E-04   -0.24308E-04 13731   0.295E-02    0.250E-02
DAV:   7    -0.812395719980E+03   -0.35898E-05   -0.25451E-05  9771   0.118E-02
  21 F= -.81239572E+03 E0= -.81239565E+03  d E =-.258488E-01  mag=     0.9998
       N       E                     dE             d eps       ncg     rms          rms(c)
DAV:   1    -0.812355993890E+03    0.39723E-01   -0.11289E+01 11736   0.633E+00    0.818E-01
DAV:   2    -0.812407962432E+03   -0.51969E-01   -0.57400E-01 12018   0.123E+00    0.570E-01
DAV:   3    -0.812409811662E+03   -0.18492E-02   -0.31853E-02 15027   0.308E-01    0.331E-01
DAV:   4    -0.812409205061E+03    0.60660E-03   -0.42976E-03 14433   0.162E-01    0.181E-01
DAV:   5    -0.812409314014E+03   -0.10895E-03   -0.16357E-03 14748   0.117E-01    0.582E-02
DAV:   6    -0.812409338246E+03   -0.24232E-04   -0.43357E-04 14766   0.430E-02    0.357E-02
DAV:   7    -0.812409342640E+03   -0.43942E-05   -0.62870E-05 12363   0.153E-02
  22 F= -.81240934E+03 E0= -.81240913E+03  d E =-.394714E-01  mag=     0.9995
       N       E                     dE             d eps       ncg     rms          rms(c)
DAV:   1    -0.812409442570E+03   -0.10432E-03   -0.22380E+00 12006   0.342E+00    0.386E-01
DAV:   2    -0.812424252537E+03   -0.14810E-01   -0.16602E-01 12006   0.717E-01    0.276E-01
DAV:   3    -0.812425269025E+03   -0.10165E-02   -0.13173E-02 14829   0.186E-01    0.164E-01
DAV:   4    -0.812425177550E+03    0.91475E-04   -0.12007E-03 15507   0.801E-02    0.982E-02
DAV:   5    -0.812425155857E+03    0.21693E-04   -0.34583E-04 13812   0.580E-02    0.362E-02
DAV:   6    -0.812425171908E+03   -0.16051E-04   -0.12485E-04 14235   0.249E-02    0.167E-02
DAV:   7    -0.812425179636E+03   -0.77282E-05   -0.20074E-05  9744   0.926E-03
  23 F= -.81242518E+03 E0= -.81242512E+03  d E =-.158370E-01  mag=     0.9996
       N       E                     dE             d eps       ncg     rms          rms(c)
DAV:   1    -0.812389558152E+03    0.35614E-01   -0.75972E+00 12129   0.632E+00    0.713E-01
DAV:   2    -0.812439241433E+03   -0.49683E-01   -0.56287E-01 11859   0.133E+00    0.510E-01
DAV:   3    -0.812442519611E+03   -0.32782E-02   -0.43803E-02 14442   0.347E-01    0.303E-01
DAV:   4    -0.812442135911E+03    0.38370E-03   -0.39078E-03 15639   0.159E-01    0.181E-01
DAV:   5    -0.812442046489E+03    0.89422E-04   -0.12976E-03 14010   0.115E-01    0.659E-02
DAV:   6    -0.812442104290E+03   -0.57801E-04   -0.61878E-04 14388   0.535E-02    0.320E-02
DAV:   7    -0.812442118449E+03   -0.14158E-04   -0.94928E-05 13542   0.184E-02    0.189E-02
DAV:   8    -0.812442125407E+03   -0.69582E-05   -0.13201E-05  8286   0.115E-02
  24 F= -.81244213E+03 E0= -.81244212E+03  d E =-.327828E-01  mag=     0.9998
       N       E                     dE             d eps       ncg     rms          rms(c)
DAV:   1    -0.812219412427E+03    0.22271E+00   -0.30328E+01 12003   0.127E+01    0.146E+00
DAV:   2    -0.812417573860E+03   -0.19816E+00   -0.22455E+00 11814   0.271E+00    0.103E+00
DAV:   3    -0.812431198961E+03   -0.13625E-01   -0.18593E-01 14526   0.746E-01    0.620E-01
DAV:   4    -0.812429817311E+03    0.13817E-02   -0.16840E-02 15819   0.324E-01    0.385E-01
DAV:   5    -0.812429277395E+03    0.53992E-03   -0.48169E-03 13398   0.228E-01    0.134E-01
DAV:   6    -0.812429526363E+03   -0.24897E-03   -0.26778E-03 14820   0.109E-01    0.644E-02
DAV:   7    -0.812429571045E+03   -0.44682E-04   -0.45566E-04 14487   0.387E-02    0.394E-02
DAV:   8    -0.812429575537E+03   -0.44913E-05   -0.60692E-05 12219   0.227E-02
  25 F= -.81242958E+03 E0= -.81242958E+03  d E =-.202329E-01  mag=     0.9999
       N       E                     dE             d eps       ncg     rms          rms(c)
DAV:   1    -0.812343093596E+03    0.86477E-01   -0.14934E+01 12051   0.895E+00    0.101E+00
DAV:   2    -0.812438707177E+03   -0.95614E-01   -0.10849E+00 11706   0.188E+00    0.723E-01
DAV:   3    -0.812445525425E+03   -0.68182E-02   -0.89574E-02 14739   0.509E-01    0.433E-01
DAV:   4    -0.812444880980E+03    0.64444E-03   -0.86830E-03 15963   0.227E-01    0.264E-01
DAV:   5    -0.812444746271E+03    0.13471E-03   -0.26856E-03 14073   0.165E-01    0.979E-02
DAV:   6    -0.812444779177E+03   -0.32906E-04   -0.12598E-03 15819   0.883E-02    0.474E-02
DAV:   7    -0.812444804206E+03   -0.25029E-04   -0.28434E-04 14163   0.303E-02    0.302E-02
DAV:   8    -0.812444793253E+03    0.10953E-04   -0.29583E-05  9861   0.175E-02    0.136E-02
DAV:   9    -0.812444799010E+03   -0.57567E-05   -0.19611E-05  9069   0.117E-02
  26 F= -.81244480E+03 E0= -.81244480E+03  d E =-.354564E-01  mag=     0.9999
       N       E                     dE             d eps       ncg     rms          rms(c)
DAV:   1    -0.812440228939E+03    0.45643E-02   -0.27251E+00 11982   0.372E+00    0.404E-01
DAV:   2    -0.812455962159E+03   -0.15733E-01   -0.17665E-01 11922   0.793E-01    0.306E-01
DAV:   3    -0.812457066523E+03   -0.11044E-02   -0.15403E-02 14901   0.231E-01    0.178E-01
DAV:   4    -0.812456903690E+03    0.16283E-03   -0.13295E-03 16269   0.127E-01    0.111E-01
DAV:   5    -0.812456880855E+03    0.22834E-04   -0.68550E-04 13092   0.836E-02    0.370E-02
DAV:   6    -0.812456926565E+03   -0.45709E-04   -0.47083E-04 13830   0.353E-02    0.236E-02
DAV:   7    -0.812456930429E+03   -0.38647E-05   -0.44729E-05 11868   0.131E-02
  27 F= -.81245693E+03 E0= -.81245692E+03  d E =-.121314E-01  mag=     1.0000
       N       E                     dE             d eps       ncg     rms          rms(c)
DAV:   1    -0.812433203142E+03    0.23723E-01   -0.47939E+00 11910   0.494E+00    0.537E-01
DAV:   2    -0.812461198363E+03   -0.27995E-01   -0.31294E-01 11733   0.104E+00    0.408E-01
DAV:   3    -0.812463156954E+03   -0.19586E-02   -0.26202E-02 15180   0.298E-01    0.235E-01
DAV:   4    -0.812462854382E+03    0.30257E-03   -0.21007E-03 15684   0.155E-01    0.146E-01
DAV:   5    -0.812462828625E+03    0.25757E-04   -0.11927E-03 13263   0.104E-01    0.475E-02
DAV:   6    -0.812462890471E+03   -0.61847E-04   -0.67702E-04 13542   0.417E-02    0.294E-02
DAV:   7    -0.812462895560E+03   -0.50889E-05   -0.66822E-05 12984   0.167E-02
  28 F= -.81246290E+03 E0= -.81246270E+03  d E =-.180966E-01  mag=     0.9997
       N       E                     dE             d eps       ncg     rms          rms(c)
DAV:   1    -0.812449680493E+03    0.13210E-01   -0.31657E+00 12108   0.406E+00    0.448E-01
DAV:   2    -0.812471032950E+03   -0.21352E-01   -0.23032E-01 11535   0.803E-01    0.306E-01
DAV:   3    -0.812471937415E+03   -0.90447E-03   -0.11155E-02 14979   0.177E-01    0.177E-01
DAV:   4    -0.812471744819E+03    0.19260E-03   -0.12087E-03 14532   0.101E-01    0.874E-02
DAV:   5    -0.812471825961E+03   -0.81142E-04   -0.53078E-04 14352   0.646E-02    0.300E-02
DAV:   6    -0.812471834146E+03   -0.81857E-05   -0.10800E-04 14136   0.242E-02    0.175E-02
DAV:   7    -0.812471839385E+03   -0.52385E-05   -0.14777E-05  8754   0.103E-02
  29 F= -.81247184E+03 E0= -.81247147E+03  d E =-.894382E-02  mag=     0.9991
       N       E                     dE             d eps       ncg     rms          rms(c)
DAV:   1    -0.812470915151E+03    0.91900E-03   -0.18178E-01 12291   0.971E-01    0.108E-01
DAV:   2    -0.812472140554E+03   -0.12254E-02   -0.13305E-02 11688   0.193E-01    0.735E-02
DAV:   3    -0.812472204681E+03   -0.64127E-04   -0.66209E-04 14721   0.420E-02    0.425E-02
DAV:   4    -0.812472196163E+03    0.85181E-05   -0.66306E-05 11067   0.224E-02
  30 F= -.81247220E+03 E0= -.81247177E+03  d E =-.930060E-02  mag=     0.9988
       N       E                     dE             d eps       ncg     rms          rms(c)
DAV:   1    -0.812465828150E+03    0.63765E-02   -0.16760E+00 11940   0.323E+00    0.332E-01
DAV:   2    -0.812478643544E+03   -0.12815E-01   -0.14147E-01 11544   0.686E-01    0.231E-01
DAV:   3    -0.812479636697E+03   -0.99315E-03   -0.10786E-02 14775   0.173E-01    0.137E-01
DAV:   4    -0.812479541510E+03    0.95187E-04   -0.95483E-04 15327   0.744E-02    0.874E-02
DAV:   5    -0.812479509664E+03    0.31846E-04   -0.26316E-04 14010   0.522E-02    0.329E-02
DAV:   6    -0.812479529427E+03   -0.19763E-04   -0.93705E-05 13767   0.222E-02    0.146E-02
DAV:   7    -0.812479543103E+03   -0.13676E-04   -0.13713E-05  8691   0.923E-03    0.860E-03
DAV:   8    -0.812479553296E+03   -0.10193E-04   -0.52338E-06  8151   0.665E-03    0.463E-03
DAV:   9    -0.812479560861E+03   -0.75644E-05   -0.25367E-06  8034   0.365E-03
  31 F= -.81247956E+03 E0= -.81247936E+03  d E =-.736470E-02  mag=     0.9989
       N       E                     dE             d eps       ncg     rms          rms(c)
DAV:   1    -0.812439388563E+03    0.40165E-01   -0.54992E+00 11883   0.586E+00    0.600E-01
DAV:   2    -0.812481574856E+03   -0.42186E-01   -0.46700E-01 11580   0.125E+00    0.416E-01
DAV:   3    -0.812484896415E+03   -0.33216E-02   -0.34992E-02 14613   0.314E-01    0.246E-01
DAV:   4    -0.812484556879E+03    0.33954E-03   -0.29944E-03 15531   0.138E-01    0.156E-01
DAV:   5    -0.812484465895E+03    0.90983E-04   -0.87249E-04 13614   0.986E-02    0.582E-02
DAV:   6    -0.812484532990E+03   -0.67095E-04   -0.39068E-04 14685   0.441E-02    0.264E-02
DAV:   7    -0.812484568566E+03   -0.35576E-04   -0.62885E-05 12849   0.171E-02    0.159E-02
DAV:   8    -0.812484590971E+03   -0.22405E-04   -0.88525E-06  8556   0.111E-02    0.850E-03
DAV:   9    -0.812484610948E+03   -0.19977E-04   -0.66607E-06  8394   0.666E-03    0.337E-03
DAV:  10    -0.812484619723E+03   -0.87748E-05   -0.29805E-06  7890   0.401E-03
  32 F= -.81248462E+03 E0= -.81248459E+03  d E =-.124236E-01  mag=     0.9994
       N       E                     dE             d eps       ncg     rms          rms(c)
DAV:   1    -0.812476161502E+03    0.84494E-02   -0.22227E+00 11769   0.337E+00    0.359E-01
DAV:   2    -0.812490011292E+03   -0.13850E-01   -0.15137E-01 11769   0.689E-01    0.242E-01
DAV:   3    -0.812491018612E+03   -0.10073E-02   -0.92319E-03 14784   0.165E-01    0.138E-01
DAV:   4    -0.812490881431E+03    0.13718E-03   -0.68893E-04 15477   0.826E-02    0.825E-02
DAV:   5    -0.812490907978E+03   -0.26547E-04   -0.39180E-04 13812   0.532E-02    0.253E-02
DAV:   6    -0.812490952679E+03   -0.44700E-04   -0.12688E-04 13326   0.202E-02    0.148E-02
DAV:   7    -0.812490974986E+03   -0.22307E-04   -0.88896E-06  8610   0.758E-03    0.835E-03
DAV:   8    -0.812490990810E+03   -0.15824E-04   -0.56992E-06  8367   0.643E-03    0.427E-03
DAV:   9    -0.812490997949E+03   -0.71393E-05   -0.29627E-06  8178   0.397E-03
  33 F= -.81249100E+03 E0= -.81249089E+03  d E =-.637823E-02  mag=     0.9995
       N       E                     dE             d eps       ncg     rms          rms(c)
DAV:   1    -0.812455608505E+03    0.35382E-01   -0.59025E+00 11766   0.550E+00    0.586E-01
DAV:   2    -0.812492499956E+03   -0.36891E-01   -0.40285E-01 11946   0.111E+00    0.393E-01
DAV:   3    -0.812495198696E+03   -0.26987E-02   -0.23555E-02 14919   0.258E-01    0.226E-01
DAV:   4    -0.812494874761E+03    0.32394E-03   -0.19399E-03 15504   0.118E-01    0.136E-01
DAV:   5    -0.812494900090E+03   -0.25329E-04   -0.91022E-04 14019   0.819E-02    0.407E-02
DAV:   6    -0.812494974864E+03   -0.74774E-04   -0.25886E-04 13740   0.305E-02    0.224E-02
DAV:   7    -0.812495006652E+03   -0.31788E-04   -0.21433E-05  9411   0.113E-02    0.128E-02
DAV:   8    -0.812495023154E+03   -0.16502E-04   -0.93866E-06  8556   0.866E-03    0.619E-03
DAV:   9    -0.812495030524E+03   -0.73700E-05   -0.49145E-06  8322   0.511E-03
  34 F= -.81249503E+03 E0= -.81249451E+03  d E =-.104108E-01  mag=     0.9985
       N       E                     dE             d eps       ncg     rms          rms(c)
DAV:   1    -0.812490459775E+03    0.45634E-02   -0.13790E+00 11667   0.260E+00    0.291E-01
DAV:   2    -0.812499067704E+03   -0.86079E-02   -0.92964E-02 12114   0.511E-01    0.187E-01
DAV:   3    -0.812499631787E+03   -0.56408E-03   -0.42452E-03 15012   0.100E-01    0.107E-01
DAV:   4    -0.812499536457E+03    0.95330E-04   -0.41786E-04 13371   0.495E-02    0.562E-02
DAV:   5    -0.812499597616E+03   -0.61159E-04   -0.17352E-04 12822   0.323E-02    0.175E-02
DAV:   6    -0.812499619420E+03   -0.21805E-04   -0.26510E-05  9834   0.123E-02    0.991E-03
DAV:   7    -0.812499633015E+03   -0.13594E-04   -0.62969E-06  8403   0.620E-03    0.525E-03
DAV:   8    -0.812499639601E+03   -0.65866E-05   -0.27934E-06  8367   0.417E-03
  35 F= -.81249964E+03 E0= -.81249893E+03  d E =-.460908E-02  mag=     0.9975
       N       E                     dE             d eps       ncg     rms          rms(c)
DAV:   1    -0.812492699197E+03    0.69338E-02   -0.12590E+00 11658   0.249E+00    0.278E-01
DAV:   2    -0.812500577537E+03   -0.78783E-02   -0.85023E-02 12081   0.488E-01    0.179E-01
DAV:   3    -0.812501099159E+03   -0.52162E-03   -0.39018E-03 15072   0.958E-02    0.102E-01
DAV:   4    -0.812501011924E+03    0.87235E-04   -0.38322E-04 13461   0.478E-02    0.541E-02
DAV:   5    -0.812501065730E+03   -0.53807E-04   -0.16037E-04 12561   0.310E-02    0.169E-02
DAV:   6    -0.812501084544E+03   -0.18814E-04   -0.26077E-05  9762   0.120E-02    0.963E-03
DAV:   7    -0.812501096218E+03   -0.11674E-04   -0.60815E-06  8439   0.619E-03    0.517E-03
DAV:   8    -0.812501101982E+03   -0.57645E-05   -0.27138E-06  8241   0.411E-03
  36 F= -.81250110E+03 E0= -.81250020E+03  d E =-.607146E-02  mag=     0.9964
       N       E                     dE             d eps       ncg     rms          rms(c)
DAV:   1    -0.812496572582E+03    0.45236E-02   -0.12661E+00 11877   0.255E+00    0.286E-01
DAV:   2    -0.812504912339E+03   -0.83398E-02   -0.91116E-02 11988   0.513E-01    0.184E-01
DAV:   3    -0.812505585476E+03   -0.67314E-03   -0.48879E-03 15000   0.112E-01    0.105E-01
DAV:   4    -0.812505480209E+03    0.10527E-03   -0.46910E-04 14064   0.528E-02    0.588E-02
DAV:   5    -0.812505539118E+03   -0.58910E-04   -0.15491E-04 13110   0.361E-02    0.224E-02
DAV:   6    -0.812505578088E+03   -0.38970E-04   -0.43040E-05 11562   0.150E-02    0.108E-02
DAV:   7    -0.812505607159E+03   -0.29071E-04   -0.68527E-06  8394   0.677E-03    0.571E-03
DAV:   8    -0.812505623256E+03   -0.16098E-04   -0.33092E-06  8403   0.484E-03    0.309E-03
DAV:   9    -0.812505631453E+03   -0.81963E-05   -0.16400E-06  8142   0.306E-03
  37 F= -.81250563E+03 E0= -.81250478E+03  d E =-.452947E-02  mag=     0.9959
       N       E                     dE             d eps       ncg     rms          rms(c)
DAV:   1    -0.812430643839E+03    0.74979E-01   -0.11382E+01 11916   0.765E+00    0.865E-01
DAV:   2    -0.812506339773E+03   -0.75696E-01   -0.82100E-01 11835   0.155E+00    0.554E-01
DAV:   3    -0.812512233738E+03   -0.58940E-02   -0.44987E-02 14874   0.336E-01    0.320E-01
DAV:   4    -0.812511473719E+03    0.76002E-03   -0.41316E-03 14757   0.159E-01    0.183E-01
DAV:   5    -0.812511760600E+03   -0.28688E-03   -0.13234E-03 14271   0.110E-01    0.693E-02
DAV:   6    -0.812511978162E+03   -0.21756E-03   -0.41292E-04 15027   0.495E-02    0.316E-02
DAV:   7    -0.812512122766E+03   -0.14460E-03   -0.69039E-05 12174   0.193E-02    0.181E-02
DAV:   8    -0.812512216129E+03   -0.93363E-04   -0.15996E-05  8943   0.124E-02    0.953E-03
DAV:   9    -0.812512276374E+03   -0.60245E-04   -0.76825E-06  8259   0.800E-03    0.420E-03
DAV:  10    -0.812512305807E+03   -0.29433E-04   -0.34808E-06  8169   0.420E-03    0.268E-03
DAV:  11    -0.812512329400E+03   -0.23593E-04   -0.22031E-06  7962   0.314E-03    0.203E-03
DAV:  12    -0.812512348135E+03   -0.18735E-04   -0.14804E-06  8142   0.223E-03    0.151E-03
DAV:  13    -0.812512365141E+03   -0.17006E-04   -0.13749E-06  8223   0.192E-03    0.107E-03
DAV:  14    -0.812512374933E+03   -0.97921E-05   -0.98161E-07  8232   0.149E-03
  38 F= -.81251237E+03 E0= -.81251168E+03  d E =-.112730E-01  mag=     0.9964
       N       E                     dE             d eps       ncg     rms          rms(c)
DAV:   1    -0.812505301125E+03    0.70640E-02   -0.21708E+00 11817   0.314E+00    0.357E-01
DAV:   2    -0.812517273305E+03   -0.11972E-01   -0.13063E-01 11850   0.610E-01    0.236E-01
DAV:   3    -0.812518331116E+03   -0.10578E-02   -0.64317E-03 14964   0.137E-01    0.127E-01
DAV:   4    -0.812518151332E+03    0.17978E-03   -0.59198E-04 14613   0.729E-02    0.722E-02
DAV:   5    -0.812518244369E+03   -0.93037E-04   -0.27113E-04 13713   0.453E-02    0.213E-02
DAV:   6    -0.812518302462E+03   -0.58092E-04   -0.59941E-05 11670   0.169E-02    0.136E-02
DAV:   7    -0.812518338862E+03   -0.36401E-04   -0.84408E-06  8430   0.794E-03    0.661E-03
DAV:   8    -0.812518364946E+03   -0.26084E-04   -0.40770E-06  8232   0.544E-03    0.356E-03
DAV:   9    -0.812518375882E+03   -0.10936E-04   -0.20951E-06  8232   0.371E-03    0.190E-03
DAV:  10    -0.812518384152E+03   -0.82700E-05   -0.12067E-06  8061   0.221E-03
  39 F= -.81251838E+03 E0= -.81251760E+03  d E =-.600922E-02  mag=     0.9961
       N       E                     dE             d eps       ncg     rms          rms(c)
DAV:   1    -0.812460419503E+03    0.57956E-01   -0.10546E+01 11859   0.692E+00    0.796E-01
DAV:   2    -0.812519089712E+03   -0.58670E-01   -0.63270E-01 11721   0.134E+00    0.521E-01
DAV:   3    -0.812523667970E+03   -0.45783E-02   -0.30108E-02 14910   0.298E-01    0.285E-01
DAV:   4    -0.812522874168E+03    0.79380E-03   -0.30244E-03 15018   0.159E-01    0.161E-01
DAV:   5    -0.812523243458E+03   -0.36929E-03   -0.13030E-03 14073   0.971E-02    0.493E-02
DAV:   6    -0.812523435148E+03   -0.19169E-03   -0.29549E-04 14568   0.382E-02    0.300E-02
DAV:   7    -0.812523557887E+03   -0.12274E-03   -0.44281E-05 10779   0.170E-02    0.159E-02
DAV:   8    -0.812523641316E+03   -0.83428E-04   -0.12615E-05  8574   0.106E-02    0.838E-03
DAV:   9    -0.812523685237E+03   -0.43922E-04   -0.57373E-06  8187   0.721E-03    0.365E-03
DAV:  10    -0.812523710270E+03   -0.25033E-04   -0.27824E-06  7989   0.388E-03    0.223E-03
DAV:  11    -0.812523728107E+03   -0.17837E-04   -0.17096E-06  8070   0.247E-03    0.172E-03
DAV:  12    -0.812523742371E+03   -0.14264E-04   -0.11083E-06  7962   0.179E-03    0.134E-03
DAV:  13    -0.812523760171E+03   -0.17800E-04   -0.12093E-06  8223   0.151E-03    0.991E-04
DAV:  14    -0.812523770059E+03   -0.98879E-05   -0.79552E-07  8196   0.129E-03
  40 F= -.81252377E+03 E0= -.81252279E+03  d E =-.113951E-01  mag=     0.9950
       N       E                     dE             d eps       ncg     rms          rms(c)
DAV:   1    -0.812518982124E+03    0.47780E-02   -0.15042E+00 11832   0.254E+00    0.291E-01
DAV:   2    -0.812526738319E+03   -0.77562E-02   -0.84059E-02 11943   0.477E-01    0.177E-01
DAV:   3    -0.812527413859E+03   -0.67554E-03   -0.35502E-03 15090   0.860E-02    0.100E-01
DAV:   4    -0.812527287277E+03    0.12658E-03   -0.39274E-04 12570   0.411E-02    0.496E-02
DAV:   5    -0.812527394752E+03   -0.10748E-03   -0.13383E-04 11769   0.232E-02    0.173E-02
DAV:   6    -0.812527430701E+03   -0.35948E-04   -0.17267E-05  8745   0.970E-03    0.974E-03
DAV:   7    -0.812527460321E+03   -0.29620E-04   -0.61226E-06  8151   0.637E-03    0.470E-03
DAV:   8    -0.812527474292E+03   -0.13971E-04   -0.30990E-06  8430   0.430E-03    0.232E-03
DAV:   9    -0.812527479463E+03   -0.51718E-05   -0.13552E-06  8061   0.291E-03
  41 F= -.81252748E+03 E0= -.81252633E+03  d E =-.370940E-02  mag=     0.9943
       N       E                     dE             d eps       ncg     rms          rms(c)
DAV:   1    -0.812514139526E+03    0.13335E-01   -0.26758E+00 11823   0.339E+00    0.390E-01
DAV:   2    -0.812527952517E+03   -0.13813E-01   -0.14972E-01 11868   0.636E-01    0.236E-01
DAV:   3    -0.812529193480E+03   -0.12410E-02   -0.63178E-03 15072   0.115E-01    0.135E-01
DAV:   4    -0.812528988446E+03    0.20503E-03   -0.73357E-04 12696   0.548E-02    0.666E-02
DAV:   5    -0.812529149753E+03   -0.16131E-03   -0.23739E-04 12573   0.307E-02    0.235E-02
DAV:   6    -0.812529204072E+03   -0.54319E-04   -0.34920E-05 10122   0.129E-02    0.134E-02
DAV:   7    -0.812529247320E+03   -0.43249E-04   -0.86852E-06  8070   0.781E-03    0.645E-03
DAV:   8    -0.812529271108E+03   -0.23788E-04   -0.49784E-06  8511   0.496E-03    0.298E-03
DAV:   9    -0.812529279205E+03   -0.80966E-05   -0.17847E-06  8160   0.353E-03
  42 F= -.81252928E+03 E0= -.81252790E+03  d E =-.550915E-02  mag=     0.9932
       N       E                     dE             d eps       ncg     rms          rms(c)
DAV:   1    -0.812523383978E+03    0.58871E-02   -0.18322E+00 11724   0.285E+00    0.317E-01
DAV:   2    -0.812532615211E+03   -0.92312E-02   -0.10150E-01 11952   0.546E-01    0.199E-01
DAV:   3    -0.812533467287E+03   -0.85208E-03   -0.50018E-03 14964   0.116E-01    0.112E-01
DAV:   4    -0.812533355605E+03    0.11168E-03   -0.46030E-04 13992   0.602E-02    0.636E-02
DAV:   5    -0.812533430817E+03   -0.75212E-04   -0.22925E-04 13731   0.423E-02    0.229E-02
DAV:   6    -0.812533471884E+03   -0.41066E-04   -0.57796E-05 12228   0.161E-02    0.134E-02
DAV:   7    -0.812533498336E+03   -0.26452E-04   -0.79340E-06  8466   0.796E-03    0.701E-03
DAV:   8    -0.812533512249E+03   -0.13913E-04   -0.49990E-06  8421   0.615E-03    0.325E-03
DAV:   9    -0.812533517320E+03   -0.50709E-05   -0.22137E-06  8133   0.313E-03
  43 F= -.81253352E+03 E0= -.81253186E+03  d E =-.423812E-02  mag=     0.9917
       N       E                     dE             d eps       ncg     rms          rms(c)
DAV:   1    -0.812506685101E+03    0.26827E-01   -0.53556E+00 11724   0.488E+00    0.545E-01
DAV:   2    -0.812533872891E+03   -0.27188E-01   -0.29652E-01 11967   0.934E-01    0.340E-01
DAV:   3    -0.812536313359E+03   -0.24405E-02   -0.14972E-02 14973   0.199E-01    0.194E-01
DAV:   4    -0.812536002359E+03    0.31100E-03   -0.13270E-03 14298   0.103E-01    0.112E-01
DAV:   5    -0.812536111054E+03   -0.10869E-03   -0.66283E-04 13776   0.775E-02    0.405E-02
DAV:   6    -0.812536195586E+03   -0.84533E-04   -0.18559E-04 14154   0.322E-02    0.230E-02
DAV:   7    -0.812536252315E+03   -0.56728E-04   -0.43188E-05 11355   0.145E-02    0.141E-02
DAV:   8    -0.812536271580E+03   -0.19266E-04   -0.97105E-06  8502   0.119E-02    0.728E-03
DAV:   9    -0.812536284317E+03   -0.12737E-04   -0.52975E-06  8421   0.518E-03    0.344E-03
DAV:  10    -0.812536289503E+03   -0.51859E-05   -0.21744E-06  8124   0.352E-03
  44 F= -.81253629E+03 E0= -.81253418E+03  d E =-.701030E-02  mag=     0.9891
       N       E                     dE             d eps       ncg     rms          rms(c)
DAV:   1    -0.812532685719E+03    0.35986E-02   -0.13657E+00 11589   0.242E+00    0.268E-01
DAV:   2    -0.812539310510E+03   -0.66248E-02   -0.71551E-02 11880   0.456E-01    0.168E-01
DAV:   3    -0.812539871758E+03   -0.56125E-03   -0.35545E-03 15225   0.934E-02    0.968E-02
DAV:   4    -0.812539787150E+03    0.84608E-04   -0.31290E-04 14199   0.489E-02    0.525E-02
DAV:   5    -0.812539831539E+03   -0.44389E-04   -0.13092E-04 12804   0.341E-02    0.170E-02
DAV:   6    -0.812539852177E+03   -0.20637E-04   -0.55718E-05 11733   0.148E-02    0.106E-02
DAV:   7    -0.812539862465E+03   -0.10288E-04   -0.72661E-06  8349   0.669E-03    0.596E-03
DAV:   8    -0.812539866753E+03   -0.42880E-05   -0.33374E-06  8295   0.436E-03
  45 F= -.81253987E+03 E0= -.81253749E+03  d E =-.357725E-02  mag=     0.9871
       N       E                     dE             d eps       ncg     rms          rms(c)
DAV:   1    -0.812480577649E+03    0.59285E-01   -0.12287E+01 11607   0.724E+00    0.819E-01
DAV:   2    -0.812541262477E+03   -0.60685E-01   -0.64832E-01 11679   0.136E+00    0.505E-01
DAV:   3    -0.812545632914E+03   -0.43704E-02   -0.29870E-02 15225   0.272E-01    0.294E-01
DAV:   4    -0.812544959761E+03    0.67315E-03   -0.30749E-03 13686   0.133E-01    0.163E-01
DAV:   5    -0.812545200994E+03   -0.24123E-03   -0.10047E-03 12930   0.125E-01    0.580E-02
DAV:   6    -0.812545322454E+03   -0.12146E-03   -0.57813E-04 13464   0.703E-02    0.353E-02
DAV:   7    -0.812545377879E+03   -0.55425E-04   -0.14268E-04 13101   0.259E-02    0.206E-02
DAV:   8    -0.812545404020E+03   -0.26141E-04   -0.35792E-05 10608   0.988E-03    0.139E-02
DAV:   9    -0.812545415528E+03   -0.11508E-04   -0.79830E-06  8484   0.901E-03    0.714E-03
DAV:  10    -0.812545421341E+03   -0.58124E-05   -0.44841E-06  8187   0.790E-03
  46 F= -.81254542E+03 E0= -.81254227E+03  d E =-.913184E-02  mag=     0.9824
       N       E                     dE             d eps       ncg     rms          rms(c)
DAV:   1    -0.812538349717E+03    0.70658E-02   -0.25153E+00 11757   0.314E+00    0.347E-01
DAV:   2    -0.812549530906E+03   -0.11181E-01   -0.12088E-01 11655   0.594E-01    0.237E-01
DAV:   3    -0.812550221174E+03   -0.69027E-03   -0.58921E-03 15441   0.181E-01    0.145E-01
DAV:   4    -0.812550165443E+03    0.55731E-04   -0.13577E-03 13605   0.111E-01    0.926E-02
DAV:   5    -0.812550124661E+03    0.40782E-04   -0.54364E-04 12714   0.783E-02    0.296E-02
DAV:   6    -0.812550171262E+03   -0.46601E-04   -0.25876E-04 12705   0.260E-02    0.257E-02
DAV:   7    -0.812550176454E+03   -0.51925E-05   -0.18323E-05  9240   0.136E-02
  47 F= -.81255018E+03 E0= -.81254690E+03  d E =-.475511E-02  mag=     0.9802
       N       E                     dE             d eps       ncg     rms          rms(c)
DAV:   1    -0.812542930549E+03    0.72407E-02   -0.18904E+00 11712   0.273E+00    0.303E-01
DAV:   2    -0.812551412309E+03   -0.84818E-02   -0.91147E-02 11946   0.519E-01    0.209E-01
DAV:   3    -0.812551890104E+03   -0.47780E-03   -0.46421E-03 15144   0.172E-01    0.129E-01
DAV:   4    -0.812551858083E+03    0.32021E-04   -0.10859E-03 13902   0.103E-01    0.832E-02
DAV:   5    -0.812551817603E+03    0.40480E-04   -0.45646E-04 12705   0.710E-02    0.272E-02
DAV:   6    -0.812551859761E+03   -0.42158E-04   -0.22252E-04 12687   0.241E-02    0.234E-02
DAV:   7    -0.812551865586E+03   -0.58253E-05   -0.14979E-05  8934   0.126E-02
  48 F= -.81255187E+03 E0= -.81254842E+03  d E =-.644425E-02  mag=     0.9783
       N       E                     dE             d eps       ncg     rms          rms(c)
DAV:   1    -0.812548202184E+03    0.36576E-02   -0.14731E+00 11823   0.247E+00    0.264E-01
DAV:   2    -0.812555161639E+03   -0.69595E-02   -0.74529E-02 11958   0.476E-01    0.181E-01
DAV:   3    -0.812555475498E+03   -0.31386E-03   -0.41308E-03 14973   0.158E-01    0.113E-01
DAV:   4    -0.812555453104E+03    0.22394E-04   -0.84929E-04 14118   0.952E-02    0.728E-02
DAV:   5    -0.812555420931E+03    0.32173E-04   -0.39290E-04 13020   0.587E-02    0.243E-02
DAV:   6    -0.812555454242E+03   -0.33311E-04   -0.16185E-04 12579   0.206E-02    0.211E-02
DAV:   7    -0.812555460760E+03   -0.65175E-05   -0.11242E-05  8772   0.122E-02
  49 F= -.81255546E+03 E0= -.81255196E+03  d E =-.359517E-02  mag=     0.9770
       N       E                     dE             d eps       ncg     rms          rms(c)
DAV:   1    -0.812547485123E+03    0.79691E-02   -0.21232E+00 11859   0.296E+00    0.317E-01
DAV:   2    -0.812557478542E+03   -0.99934E-02   -0.10739E-01 11787   0.572E-01    0.218E-01
DAV:   3    -0.812557967789E+03   -0.48925E-03   -0.60103E-03 15162   0.194E-01    0.137E-01
DAV:   4    -0.812557940516E+03    0.27273E-04   -0.12440E-03 14289   0.116E-01    0.882E-02
DAV:   5    -0.812557887367E+03    0.53149E-04   -0.56563E-04 13110   0.722E-02    0.294E-02
DAV:   6    -0.812557934771E+03   -0.47403E-04   -0.23912E-04 12615   0.249E-02    0.253E-02
DAV:   7    -0.812557944125E+03   -0.93544E-05   -0.17212E-05  9195   0.149E-02
  50 F= -.81255794E+03 E0= -.81255438E+03  d E =-.607854E-02  mag=     0.9760
       N       E                     dE             d eps       ncg     rms          rms(c)
DAV:   1    -0.812514987657E+03    0.42947E-01   -0.84872E+00 11835   0.592E+00    0.641E-01
DAV:   2    -0.812555009628E+03   -0.40022E-01   -0.42827E-01 11778   0.115E+00    0.441E-01
DAV:   3    -0.812556890029E+03   -0.18804E-02   -0.25709E-02 14937   0.416E-01    0.271E-01
DAV:   4    -0.812556791466E+03    0.98563E-04   -0.56718E-03 14370   0.196E-01    0.167E-01
DAV:   5    -0.812556669772E+03    0.12169E-03   -0.20847E-03 13704   0.130E-01    0.615E-02
DAV:   6    -0.812556808109E+03   -0.13834E-03   -0.73913E-04 13524   0.484E-02    0.468E-02
DAV:   7    -0.812556997576E+03   -0.18947E-03   -0.71817E-05 11868   0.485E-02    0.281E-02
DAV:   8    -0.812557024561E+03   -0.26985E-04   -0.83131E-05 10932   0.355E-02    0.166E-02
DAV:   9    -0.812557042200E+03   -0.17639E-04   -0.25314E-05 10122   0.148E-02    0.881E-03
DAV:  10    -0.812557056430E+03   -0.14230E-04   -0.93074E-06  8502   0.630E-03    0.389E-03
DAV:  11    -0.812557071035E+03   -0.14605E-04   -0.39485E-06  8097   0.407E-03    0.297E-03
DAV:  12    -0.812557077700E+03   -0.66651E-05   -0.17755E-06  8133   0.312E-03
  51 F= -.81255708E+03 E0= -.81255332E+03  d E =-.521211E-02  mag=     0.9744
       N       E                     dE             d eps       ncg     rms          rms(c)
DAV:   1    -0.812541457491E+03    0.15614E-01   -0.34942E+00 11826   0.381E+00    0.403E-01
DAV:   2    -0.812557890621E+03   -0.16433E-01   -0.17721E-01 11646   0.729E-01    0.275E-01
DAV:   3    -0.812558536023E+03   -0.64540E-03   -0.89094E-03 15297   0.236E-01    0.179E-01
DAV:   4    -0.812558635207E+03   -0.99184E-04   -0.18790E-03 14610   0.182E-01    0.122E-01
DAV:   5    -0.812558498622E+03    0.13658E-03   -0.97500E-04 13326   0.992E-02    0.384E-02
DAV:   6    -0.812558596668E+03   -0.98046E-04   -0.45923E-04 12750   0.343E-02    0.332E-02
DAV:   7    -0.812558616527E+03   -0.19859E-04   -0.49572E-05 11877   0.150E-02    0.186E-02
DAV:   8    -0.812558648032E+03   -0.31505E-04   -0.20953E-05  9456   0.103E-02    0.902E-03
DAV:   9    -0.812558662607E+03   -0.14575E-04   -0.53798E-06  8232   0.596E-03    0.388E-03
DAV:  10    -0.812558668098E+03   -0.54915E-05   -0.23645E-06  7710   0.300E-03
  52 F= -.81255867E+03 E0= -.81255501E+03  d E =-.680251E-02  mag=     0.9742
       N       E                     dE             d eps       ncg     rms          rms(c)
DAV:   1    -0.812551792289E+03    0.68703E-02   -0.20300E+00 11769   0.294E+00    0.304E-01
DAV:   2    -0.812561575994E+03   -0.97837E-02   -0.10541E-01 11709   0.550E-01    0.192E-01
DAV:   3    -0.812562009148E+03   -0.43315E-03   -0.46751E-03 15639   0.118E-01    0.115E-01
DAV:   4    -0.812561981942E+03    0.27206E-04   -0.75918E-04 13263   0.108E-01    0.827E-02
DAV:   5    -0.812561937789E+03    0.44153E-04   -0.29780E-04 12138   0.851E-02    0.253E-02
DAV:   6    -0.812561968674E+03   -0.30886E-04   -0.17133E-04 12219   0.241E-02    0.205E-02
DAV:   7    -0.812561974203E+03   -0.55292E-05   -0.30394E-05 10284   0.111E-02
  53 F= -.81256197E+03 E0= -.81255835E+03  d E =-.330610E-02  mag=     0.9742
       N       E                     dE             d eps       ncg     rms          rms(c)
DAV:   1    -0.812474409196E+03    0.87559E-01   -0.18262E+01 11742   0.883E+00    0.927E-01
DAV:   2    -0.812563098129E+03   -0.88689E-01   -0.95318E-01 11424   0.166E+00    0.580E-01
DAV:   3    -0.812566854095E+03   -0.37560E-02   -0.42052E-02 15657   0.378E-01    0.356E-01
DAV:   4    -0.812566649351E+03    0.20474E-03   -0.72547E-03 13614   0.313E-01    0.242E-01
DAV:   5    -0.812566267944E+03    0.38141E-03   -0.28546E-03 12642   0.233E-01    0.730E-02
DAV:   6    -0.812566520980E+03   -0.25304E-03   -0.16181E-03 12606   0.621E-02    0.665E-02
DAV:   7    -0.812566544681E+03   -0.23700E-04   -0.15847E-04 14910   0.419E-02    0.407E-02
DAV:   8    -0.812566590593E+03   -0.45912E-04   -0.17790E-04 11499   0.344E-02    0.245E-02
DAV:   9    -0.812566601717E+03   -0.11124E-04   -0.26088E-05  9582   0.237E-02    0.111E-02
DAV:  10    -0.812566608225E+03   -0.65078E-05   -0.12060E-05  8142   0.893E-03
  54 F= -.81256661E+03 E0= -.81256285E+03  d E =-.794013E-02  mag=     0.9738
       N       E                     dE             d eps       ncg     rms          rms(c)
DAV:   1    -0.812562372005E+03    0.42297E-02   -0.23307E+00 11502   0.283E+00    0.292E-01
DAV:   2    -0.812570750416E+03   -0.83784E-02   -0.91598E-02 11604   0.515E-01    0.218E-01
DAV:   3    -0.812571000040E+03   -0.24962E-03   -0.47036E-03 15306   0.119E-01    0.123E-01
DAV:   4    -0.812570916092E+03    0.83948E-04   -0.53849E-04 13362   0.729E-02    0.897E-02
DAV:   5    -0.812570862421E+03    0.53671E-04   -0.28739E-04 13164   0.878E-02    0.438E-02
DAV:   6    -0.812570868791E+03   -0.63692E-05   -0.17642E-04 12183   0.507E-02    0.171E-02
DAV:   7    -0.812570876749E+03   -0.79587E-05   -0.64534E-05 11022   0.148E-02
  55 F= -.81257088E+03 E0= -.81256690E+03  d E =-.426852E-02  mag=     0.9727
       N       E                     dE             d eps       ncg     rms          rms(c)
DAV:   1    -0.812541699638E+03    0.29169E-01   -0.88860E+00 11520   0.552E+00    0.576E-01
DAV:   2    -0.812573457393E+03   -0.31758E-01   -0.34906E-01 11493   0.100E+00    0.425E-01
DAV:   3    -0.812574619685E+03   -0.11623E-02   -0.17788E-02 15342   0.232E-01    0.243E-01
DAV:   4    -0.812574389145E+03    0.23054E-03   -0.23017E-03 14199   0.176E-01    0.194E-01
DAV:   5    -0.812574050395E+03    0.33875E-03   -0.11738E-03 13488   0.204E-01    0.924E-02
DAV:   6    -0.812574087535E+03   -0.37140E-04   -0.82755E-04 12552   0.978E-02    0.369E-02
DAV:   7    -0.812574111257E+03   -0.23722E-04   -0.30486E-04 12129   0.304E-02    0.246E-02
DAV:   8    -0.812574115051E+03   -0.37947E-05   -0.40039E-05 11517   0.137E-02
  56 F= -.81257412E+03 E0= -.81256957E+03  d E =-.750683E-02  mag=     0.9699
       N       E                     dE             d eps       ncg     rms          rms(c)
DAV:   1    -0.812571449507E+03    0.26617E-02   -0.15767E+00 11208   0.232E+00    0.236E-01
DAV:   2    -0.812577095741E+03   -0.56462E-02   -0.60893E-02 11760   0.412E-01    0.160E-01
DAV:   3    -0.812577249092E+03   -0.15335E-03   -0.28435E-03 15135   0.876E-02    0.957E-02
DAV:   4    -0.812577222477E+03    0.26615E-04   -0.43594E-04 13290   0.843E-02    0.812E-02
DAV:   5    -0.812577182855E+03    0.39621E-04   -0.18450E-04 11661   0.870E-02    0.310E-02
DAV:   6    -0.812577188107E+03   -0.52512E-05   -0.12522E-04 11319   0.328E-02    0.154E-02
DAV:   7    -0.812577190652E+03   -0.25456E-05   -0.41116E-05 10689   0.104E-02
  57 F= -.81257719E+03 E0= -.81257257E+03  d E =-.307560E-02  mag=     0.9678
       N       E                     dE             d eps       ncg     rms          rms(c)
DAV:   1    -0.812559102524E+03    0.18086E-01   -0.56791E+00 11238   0.440E+00    0.449E-01
DAV:   2    -0.812579362121E+03   -0.20260E-01   -0.21929E-01 11706   0.781E-01    0.305E-01
DAV:   3    -0.812579927915E+03   -0.56579E-03   -0.96714E-03 15603   0.181E-01    0.192E-01
DAV:   4    -0.812579976730E+03   -0.48815E-04   -0.21351E-03 14109   0.213E-01    0.188E-01
DAV:   5    -0.812579598255E+03    0.37848E-03   -0.81644E-04 12537   0.181E-01    0.465E-02
DAV:   6    -0.812579706222E+03   -0.10797E-03   -0.75394E-04 12858   0.444E-02    0.375E-02
DAV:   7    -0.812579699977E+03    0.62457E-05   -0.76744E-05 13164   0.169E-02
  58 F= -.81257970E+03 E0= -.81257476E+03  d E =-.558493E-02  mag=     0.9652
       N       E                     dE             d eps       ncg     rms          rms(c)
DAV:   1    -0.812575956128E+03    0.37501E-02   -0.20788E+00 11109   0.270E+00    0.270E-01
DAV:   2    -0.812583493382E+03   -0.75373E-02   -0.81891E-02 11751   0.486E-01    0.181E-01
DAV:   3    -0.812583754904E+03   -0.26152E-03   -0.38122E-03 15909   0.145E-01    0.129E-01
DAV:   4    -0.812583713597E+03    0.41307E-04   -0.95317E-04 13983   0.147E-01    0.117E-01
DAV:   5    -0.812583606629E+03    0.10697E-03   -0.39551E-04 11823   0.936E-02    0.301E-02
DAV:   6    -0.812583656307E+03   -0.49678E-04   -0.32013E-04 12165   0.314E-02    0.275E-02
DAV:   7    -0.812583654830E+03    0.14763E-05   -0.35128E-05 10779   0.117E-02
  59 F= -.81258365E+03 E0= -.81257850E+03  d E =-.395485E-02  mag=     0.9628
       N       E                     dE             d eps       ncg     rms          rms(c)
DAV:   1    -0.812542678017E+03    0.40978E-01   -0.12234E+01 11100   0.656E+00    0.652E-01
DAV:   2    -0.812586795607E+03   -0.44118E-01   -0.48028E-01 11607   0.118E+00    0.434E-01
DAV:   3    -0.812588231862E+03   -0.14363E-02   -0.22422E-02 15918   0.308E-01    0.296E-01
DAV:   4    -0.812588470612E+03   -0.23875E-03   -0.53130E-03 14442   0.369E-01    0.294E-01
DAV:   5    -0.812587477078E+03    0.99353E-03   -0.20210E-03 13158   0.240E-01    0.867E-02
DAV:   6    -0.812587669086E+03   -0.19201E-03   -0.16750E-03 12975   0.941E-02    0.677E-02
DAV:   7    -0.812587673169E+03   -0.40829E-05   -0.37645E-04 12588   0.419E-02    0.471E-02
DAV:   8    -0.812587688292E+03   -0.15123E-04   -0.11603E-04 11103   0.216E-02    0.306E-02
DAV:   9    -0.812587674875E+03    0.13417E-04   -0.32676E-05  9780   0.216E-02    0.141E-02
DAV:  10    -0.812587680283E+03   -0.54077E-05   -0.14191E-05  8025   0.936E-03
  60 F= -.81258768E+03 E0= -.81258202E+03  d E =-.798031E-02  mag=     0.9583
       N       E                     dE             d eps       ncg     rms          rms(c)
DAV:   1    -0.812580498873E+03    0.71760E-02   -0.42001E+00 10974   0.341E+00    0.349E-01
DAV:   2    -0.812592334043E+03   -0.11835E-01   -0.12705E-01 11445   0.575E-01    0.248E-01
DAV:   3    -0.812592581591E+03   -0.24755E-03   -0.57877E-03 15864   0.151E-01    0.171E-01
DAV:   4    -0.812592617148E+03   -0.35558E-04   -0.12963E-03 13722   0.196E-01    0.177E-01
DAV:   5    -0.812592240399E+03    0.37675E-03   -0.64484E-04 11805   0.157E-01    0.430E-02
DAV:   6    -0.812592343425E+03   -0.10303E-03   -0.71352E-04 12462   0.444E-02    0.370E-02
DAV:   7    -0.812592336587E+03    0.68384E-05   -0.63733E-05 12525   0.145E-02
  61 F= -.81259234E+03 E0= -.81258649E+03  d E =-.465630E-02  mag=     0.9558
       N       E                     dE             d eps       ncg     rms          rms(c)
DAV:   1    -0.812491385495E+03    0.10096E+00   -0.37779E+01 10992   0.102E+01    0.107E+00
DAV:   2    -0.812597972624E+03   -0.10659E+00   -0.11473E+00 11388   0.173E+00    0.746E-01
DAV:   3    -0.812600542887E+03   -0.25703E-02   -0.52593E-02 16035   0.436E-01    0.515E-01
DAV:   4    -0.812601689787E+03   -0.11469E-02   -0.11194E-02 14307   0.617E-01    0.504E-01
DAV:   5    -0.812598113631E+03    0.35762E-02   -0.58417E-03 13422   0.421E-01    0.200E-01
DAV:   6    -0.812598349745E+03   -0.23611E-03   -0.44704E-03 13164   0.219E-01    0.142E-01
DAV:   7    -0.812598291405E+03    0.58340E-04   -0.20757E-03 12327   0.124E-01    0.790E-02
DAV:   8    -0.812598389198E+03   -0.97793E-04   -0.28047E-04 12660   0.728E-02    0.837E-02
DAV:   9    -0.812598244380E+03    0.14482E-03   -0.22565E-04 14991   0.781E-02    0.291E-02
DAV:  10    -0.812598279804E+03   -0.35424E-04   -0.16453E-04 11472   0.274E-02    0.214E-02
DAV:  11    -0.812598292854E+03   -0.13050E-04   -0.61649E-05 11994   0.149E-02    0.155E-02
DAV:  12    -0.812598289585E+03    0.32688E-05   -0.83689E-06  7845   0.114E-02
  62 F= -.81259829E+03 E0= -.81259175E+03  d E =-.106093E-01  mag=     0.9486
       N       E                     dE             d eps       ncg     rms          rms(c)
DAV:   1    -0.812584000810E+03    0.14292E-01   -0.72911E+00 10839   0.443E+00    0.460E-01
DAV:   2    -0.812604257186E+03   -0.20256E-01   -0.21618E-01 11172   0.731E-01    0.313E-01
DAV:   3    -0.812604668412E+03   -0.41123E-03   -0.99290E-03 15765   0.154E-01    0.200E-01
DAV:   4    -0.812605107605E+03   -0.43919E-03   -0.17817E-03 13983   0.248E-01    0.258E-01
DAV:   5    -0.812604146521E+03    0.96108E-03   -0.98285E-04 12678   0.228E-01    0.505E-02
DAV:   6    -0.812604316969E+03   -0.17045E-03   -0.10079E-03 12786   0.489E-02    0.444E-02
DAV:   7    -0.812604300971E+03    0.15998E-04   -0.77011E-05 12867   0.196E-02    0.284E-02
DAV:   8    -0.812604308427E+03   -0.74561E-05   -0.48678E-05 10599   0.147E-02
  63 F= -.81260431E+03 E0= -.81259740E+03  d E =-.601884E-02  mag=     0.9452
       N       E                     dE             d eps       ncg     rms          rms(c)
DAV:   1    -0.812571006878E+03    0.33294E-01   -0.13450E+01 10821   0.602E+00    0.631E-01
DAV:   2    -0.812608372428E+03   -0.37366E-01   -0.39926E-01 11145   0.994E-01    0.428E-01
DAV:   3    -0.812609148541E+03   -0.77611E-03   -0.19284E-02 15630   0.194E-01    0.252E-01
DAV:   4    -0.812608677728E+03    0.47081E-03   -0.19844E-03 13542   0.150E-01    0.185E-01
DAV:   5    -0.812608851672E+03   -0.17394E-03   -0.12928E-03 13281   0.226E-01    0.184E-01
DAV:   6    -0.812608459160E+03    0.39251E-03   -0.63224E-04 12732   0.145E-01    0.347E-02
DAV:   7    -0.812608513160E+03   -0.54001E-04   -0.37849E-04 11778   0.337E-02    0.292E-02
DAV:   8    -0.812608516473E+03   -0.33127E-05   -0.53558E-05 11976   0.122E-02
  64 F= -.81260852E+03 E0= -.81260141E+03  d E =-.102269E-01  mag=     0.9417
       N       E                     dE             d eps       ncg     rms          rms(c)
DAV:   1    -0.812600459990E+03    0.80532E-02   -0.30051E+00 10839   0.284E+00    0.300E-01
DAV:   2    -0.812608876023E+03   -0.84160E-02   -0.89532E-02 11238   0.470E-01    0.204E-01
DAV:   3    -0.812609026312E+03   -0.15029E-03   -0.42934E-03 15345   0.922E-02    0.120E-01
DAV:   4    -0.812608931821E+03    0.94491E-04   -0.44720E-04 12975   0.768E-02    0.948E-02
DAV:   5    -0.812608981832E+03   -0.50011E-04   -0.30298E-04 12768   0.113E-01    0.883E-02
DAV:   6    -0.812608878172E+03    0.10366E-03   -0.15049E-04 11814   0.677E-02    0.157E-02
DAV:   7    -0.812608896220E+03   -0.18048E-04   -0.92669E-05 11274   0.147E-02    0.143E-02
DAV:   8    -0.812608898721E+03   -0.25012E-05   -0.74690E-06  7800   0.586E-03
  65 F= -.81260890E+03 E0= -.81260173E+03  d E =-.106091E-01  mag=     0.9390
       N       E                     dE             d eps       ncg     rms          rms(c)
DAV:   1    -0.812593509537E+03    0.15387E-01   -0.69681E+00 10857   0.445E+00    0.462E-01
DAV:   2    -0.812613886665E+03   -0.20377E-01   -0.21777E-01 11364   0.747E-01    0.311E-01
DAV:   3    -0.812614433040E+03   -0.54637E-03   -0.10040E-02 15936   0.175E-01    0.213E-01
DAV:   4    -0.812615143375E+03   -0.71034E-03   -0.21085E-03 14667   0.278E-01    0.285E-01
DAV:   5    -0.812613896455E+03    0.12469E-02   -0.10422E-03 13029   0.212E-01    0.579E-02
DAV:   6    -0.812614053545E+03   -0.15709E-03   -0.10592E-03 12633   0.593E-02    0.489E-02
DAV:   7    -0.812614046961E+03    0.65838E-05   -0.12400E-04 13029   0.263E-02    0.321E-02
DAV:   8    -0.812614047246E+03   -0.28452E-06   -0.64716E-05 10617   0.145E-02
  66 F= -.81261405E+03 E0= -.81260660E+03  d E =-.514852E-02  mag=     0.9367
       N       E                     dE             d eps       ncg     rms          rms(c)
DAV:   1    -0.812602547177E+03    0.11500E-01   -0.43945E+00 10872   0.354E+00    0.370E-01
DAV:   2    -0.812615474339E+03   -0.12927E-01   -0.13777E-01 11544   0.595E-01    0.251E-01
DAV:   3    -0.812615853149E+03   -0.37881E-03   -0.62693E-03 16071   0.155E-01    0.185E-01
DAV:   4    -0.812616215055E+03   -0.36191E-03   -0.13914E-03 14739   0.225E-01    0.227E-01
DAV:   5    -0.812615462644E+03    0.75241E-03   -0.71350E-04 12399   0.155E-01    0.480E-02
DAV:   6    -0.812615571334E+03   -0.10869E-03   -0.71842E-04 12552   0.491E-02    0.407E-02
DAV:   7    -0.812615569179E+03    0.21556E-05   -0.83635E-05 12354   0.197E-02
  67 F= -.81261557E+03 E0= -.81260814E+03  d E =-.667046E-02  mag=     0.9349
       N       E                     dE             d eps       ncg     rms          rms(c)
DAV:   1    -0.812614818449E+03    0.75289E-03   -0.92834E-01 11439   0.190E+00    0.193E-01
DAV:   2    -0.812618737761E+03   -0.39193E-02   -0.41689E-02 11868   0.375E-01    0.164E-01
DAV:   3    -0.812619085854E+03   -0.34809E-03   -0.28609E-03 14127   0.199E-01    0.168E-01
DAV:   4    -0.812618816647E+03    0.26921E-03   -0.69100E-04 15306   0.132E-01    0.786E-02
DAV:   5    -0.812618798174E+03    0.18473E-04   -0.42500E-04 13461   0.503E-02    0.290E-02
DAV:   6    -0.812618809299E+03   -0.11125E-04   -0.14260E-04 12273   0.261E-02    0.186E-02
DAV:   7    -0.812618809200E+03    0.98764E-07   -0.15735E-05  8520   0.114E-02
  68 F= -.81261881E+03 E0= -.81261137E+03  d E =-.324002E-02  mag=     0.9332
       N       E                     dE             d eps       ncg     rms          rms(c)
DAV:   1    -0.812611009891E+03    0.77994E-02   -0.25969E+00 11436   0.318E+00    0.316E-01
DAV:   2    -0.812621845969E+03   -0.10836E-01   -0.11681E-01 11760   0.611E-01    0.248E-01
DAV:   3    -0.812622665282E+03   -0.81931E-03   -0.69122E-03 14946   0.281E-01    0.254E-01
DAV:   4    -0.812622177511E+03    0.48777E-03   -0.16937E-03 15081   0.217E-01    0.146E-01
DAV:   5    -0.812622002048E+03    0.17546E-03   -0.98257E-04 13227   0.920E-02    0.481E-02
DAV:   6    -0.812622047324E+03   -0.45277E-04   -0.48899E-04 13308   0.461E-02    0.330E-02
DAV:   7    -0.812622048716E+03   -0.13917E-05   -0.70350E-05 13110   0.190E-02
  69 F= -.81262205E+03 E0= -.81261453E+03  d E =-.647954E-02  mag=     0.9316
       N       E                     dE             d eps       ncg     rms          rms(c)
DAV:   1    -0.812576086478E+03    0.45961E-01   -0.10385E+01 11442   0.637E+00    0.636E-01
DAV:   2    -0.812619298404E+03   -0.43212E-01   -0.46624E-01 11697   0.123E+00    0.500E-01
DAV:   3    -0.812622555983E+03   -0.32576E-02   -0.28255E-02 14739   0.590E-01    0.512E-01
DAV:   4    -0.812620414885E+03    0.21411E-02   -0.69931E-03 15009   0.428E-01    0.288E-01
DAV:   5    -0.812619819736E+03    0.59515E-03   -0.43083E-03 13281   0.178E-01    0.102E-01
DAV:   6    -0.812619966296E+03   -0.14656E-03   -0.19024E-03 14676   0.943E-02    0.666E-02
DAV:   7    -0.812619974736E+03   -0.84403E-05   -0.24950E-04 14622   0.434E-02    0.397E-02
DAV:   8    -0.812619985465E+03   -0.10729E-04   -0.88337E-05 11634   0.236E-02    0.248E-02
DAV:   9    -0.812619982412E+03    0.30535E-05   -0.12340E-05  8385   0.178E-02
  70 F= -.81261998E+03 E0= -.81261221E+03  d E =-.441323E-02  mag=     0.9287
       N       E                     dE             d eps       ncg     rms          rms(c)
DAV:   1    -0.812603056275E+03    0.16929E-01   -0.45970E+00 11445   0.423E+00    0.419E-01
DAV:   2    -0.812622211622E+03   -0.19155E-01   -0.20592E-01 11760   0.810E-01    0.320E-01
DAV:   3    -0.812623463011E+03   -0.12514E-02   -0.11862E-02 15108   0.331E-01    0.284E-01
DAV:   4    -0.812622980473E+03    0.48254E-03   -0.27205E-03 15270   0.292E-01    0.204E-01
DAV:   5    -0.812622580779E+03    0.39969E-03   -0.14550E-03 13365   0.138E-01    0.687E-02
DAV:   6    -0.812622662396E+03   -0.81616E-04   -0.93075E-04 12084   0.674E-02    0.424E-02
DAV:   7    -0.812622676859E+03   -0.14463E-04   -0.22269E-04 15243   0.233E-02    0.287E-02
DAV:   8    -0.812622678684E+03   -0.18247E-05   -0.12614E-05  8232   0.134E-02
  71 F= -.81262268E+03 E0= -.81261507E+03  d E =-.710950E-02  mag=     0.9286
       N       E                     dE             d eps       ncg     rms          rms(c)
DAV:   1    -0.812618672741E+03    0.40041E-02   -0.18526E+00 11502   0.260E+00    0.256E-01
DAV:   2    -0.812625992265E+03   -0.73195E-02   -0.78309E-02 11526   0.469E-01    0.184E-01
DAV:   3    -0.812626242412E+03   -0.25015E-03   -0.40103E-03 15387   0.103E-01    0.112E-01
DAV:   4    -0.812626567026E+03   -0.32461E-03   -0.54468E-04 14505   0.169E-01    0.191E-01
DAV:   5    -0.812626091073E+03    0.47595E-03   -0.28732E-04 12651   0.136E-01    0.608E-02
DAV:   6    -0.812626119811E+03   -0.28738E-04   -0.28887E-04 11805   0.411E-02    0.230E-02
DAV:   7    -0.812626122517E+03   -0.27062E-05   -0.81192E-05 11832   0.149E-02
  72 F= -.81262612E+03 E0= -.81261837E+03  d E =-.344383E-02  mag=     0.9276
       N       E                     dE             d eps       ncg     rms          rms(c)
DAV:   1    -0.812607310368E+03    0.18809E-01   -0.52274E+00 11517   0.436E+00    0.434E-01
DAV:   2    -0.812628044190E+03   -0.20734E-01   -0.22174E-01 11403   0.791E-01    0.314E-01
DAV:   3    -0.812628954656E+03   -0.91047E-03   -0.10943E-02 16134   0.215E-01    0.229E-01
DAV:   4    -0.812629720681E+03   -0.76603E-03   -0.21647E-03 14757   0.318E-01    0.333E-01
DAV:   5    -0.812628317619E+03    0.14031E-02   -0.90653E-04 13281   0.204E-01    0.899E-02
DAV:   6    -0.812628476436E+03   -0.15882E-03   -0.11593E-03 11913   0.682E-02    0.423E-02
DAV:   7    -0.812628482310E+03   -0.58741E-05   -0.22106E-04 13740   0.226E-02    0.285E-02
DAV:   8    -0.812628479604E+03    0.27051E-05   -0.19623E-05  8583   0.976E-03
  73 F= -.81262848E+03 E0= -.81262056E+03  d E =-.580092E-02  mag=     0.9254
       N       E                     dE             d eps       ncg     rms          rms(c)
DAV:   1    -0.812624331055E+03    0.41513E-02   -0.17332E+00 11607   0.257E+00    0.255E-01
DAV:   2    -0.812631733680E+03   -0.74026E-02   -0.77427E-02 11886   0.476E-01    0.207E-01
DAV:   3    -0.812632243636E+03   -0.50996E-03   -0.41554E-03 15921   0.203E-01    0.202E-01
DAV:   4    -0.812631927399E+03    0.31624E-03   -0.93393E-04 14820   0.187E-01    0.130E-01
DAV:   5    -0.812631788018E+03    0.13938E-03   -0.67360E-04 11970   0.626E-02    0.383E-02
DAV:   6    -0.812631819697E+03   -0.31679E-04   -0.26159E-04 12867   0.311E-02    0.231E-02
DAV:   7    -0.812631819502E+03    0.19548E-06   -0.33651E-05 10095   0.126E-02
  74 F= -.81263182E+03 E0= -.81262373E+03  d E =-.333990E-02  mag=     0.9238
       N       E                     dE             d eps       ncg     rms          rms(c)
DAV:   1    -0.812617312022E+03    0.14508E-01   -0.38019E+00 11607   0.381E+00    0.381E-01
DAV:   2    -0.812633538212E+03   -0.16226E-01   -0.16896E-01 12021   0.708E-01    0.321E-01
DAV:   3    -0.812634823618E+03   -0.12854E-02   -0.93441E-03 15882   0.330E-01    0.320E-01
DAV:   4    -0.812633785787E+03    0.10378E-02   -0.21210E-03 14829   0.282E-01    0.173E-01
DAV:   5    -0.812633620443E+03    0.16534E-03   -0.18067E-03 12399   0.786E-02    0.608E-02
DAV:   6    -0.812633675393E+03   -0.54951E-04   -0.41031E-04 14811   0.477E-02    0.328E-02
DAV:   7    -0.812633674900E+03    0.49292E-06   -0.46816E-05 11373   0.195E-02
  75 F= -.81263367E+03 E0= -.81262543E+03  d E =-.519530E-02  mag=     0.9219
       N       E                     dE             d eps       ncg     rms          rms(c)
[...]
DAV:   6    -0.812713784788E+03   -0.19957E-05   -0.17370E-04 12759   0.333E-02    0.192E-02
DAV:   7    -0.812713786138E+03   -0.13500E-05   -0.31141E-05 10077   0.110E-02
 131 F= -.81271379E+03 E0= -.81270498E+03  d E =-.172765E-02  mag=     0.9100
       N       E                     dE             d eps       ncg     rms          rms(c)
DAV:   1    -0.812713547124E+03    0.23766E-03   -0.33717E-01 11466   0.110E+00    0.111E-01
DAV:   2    -0.812714843295E+03   -0.12962E-02   -0.13242E-02 12030   0.211E-01    0.118E-01
DAV:   3    -0.812714891164E+03   -0.47869E-04   -0.92361E-04 14640   0.110E-01    0.107E-01
DAV:   4    -0.812714819507E+03    0.71658E-04   -0.21368E-04 14514   0.836E-02    0.660E-02
DAV:   5    -0.812714782047E+03    0.37459E-04   -0.17315E-04 12678   0.284E-02    0.271E-02
DAV:   6    -0.812714773616E+03    0.84308E-05   -0.48533E-05 11571   0.195E-02
 132 F= -.81271477E+03 E0= -.81270586E+03  d E =-.987478E-03  mag=     0.9091
       N       E                     dE             d eps       ncg     rms          rms(c)
DAV:   1    -0.812711799740E+03    0.29823E-02   -0.10278E+00 11433   0.193E+00    0.193E-01
DAV:   2    -0.812715664899E+03   -0.38652E-02   -0.40762E-02 11958   0.362E-01    0.182E-01
DAV:   3    -0.812715819214E+03   -0.15432E-03   -0.24910E-03 15306   0.167E-01    0.176E-01
DAV:   4    -0.812715740254E+03    0.78960E-04   -0.63194E-04 15234   0.153E-01    0.133E-01
DAV:   5    -0.812715525677E+03    0.21458E-03   -0.43204E-04 12831   0.563E-02    0.458E-02
DAV:   6    -0.812715510627E+03    0.15050E-04   -0.20242E-04 13344   0.333E-02    0.184E-02
DAV:   7    -0.812715519197E+03   -0.85702E-05   -0.24380E-05  9114   0.110E-02
 133 F= -.81271552E+03 E0= -.81270643E+03  d E =-.173306E-02  mag=     0.9072
       N       E                     dE             d eps       ncg     rms          rms(c)
DAV:   1    -0.812714871558E+03    0.63907E-03   -0.61722E-01 11133   0.137E+00    0.133E-01
DAV:   2    -0.812716693284E+03   -0.18217E-02   -0.19696E-02 12039   0.249E-01    0.112E-01
DAV:   3    -0.812716761588E+03   -0.68304E-04   -0.12239E-03 15657   0.688E-02    0.663E-02
DAV:   4    -0.812716866394E+03   -0.10481E-03   -0.21049E-04 14109   0.826E-02    0.118E-01
DAV:   5    -0.812716730103E+03    0.13629E-03   -0.86563E-05 11859   0.763E-02    0.399E-02
DAV:   6    -0.812716733953E+03   -0.38493E-05   -0.12077E-04 11166   0.257E-02    0.125E-02
DAV:   7    -0.812716736599E+03   -0.26460E-05   -0.24341E-05  9879   0.893E-03
 134 F= -.81271674E+03 E0= -.81270767E+03  d E =-.121740E-02  mag=     0.9063
       N       E                     dE             d eps       ncg     rms          rms(c)
DAV:   1    -0.812716324996E+03    0.40896E-03   -0.31476E-01 11082   0.982E-01    0.954E-02
DAV:   2    -0.812717255893E+03   -0.93090E-03   -0.10073E-02 11724   0.179E-01    0.826E-02
DAV:   3    -0.812717302738E+03   -0.46844E-04   -0.58224E-04 16386   0.664E-02    0.678E-02
DAV:   4    -0.812717320546E+03   -0.17809E-04   -0.14588E-04 13497   0.674E-02    0.766E-02
DAV:   5    -0.812717257328E+03    0.63218E-04   -0.54345E-05 10725   0.430E-02    0.239E-02
DAV:   6    -0.812717262464E+03   -0.51358E-05   -0.80055E-05 10860   0.194E-02
 135 F= -.81271726E+03 E0= -.81270821E+03  d E =-.174327E-02  mag=     0.9059
       N       E                     dE             d eps       ncg     rms          rms(c)
DAV:   1    -0.812713827019E+03    0.34303E-02   -0.12616E+00 11091   0.196E+00    0.190E-01
DAV:   2    -0.812717518757E+03   -0.36917E-02   -0.40212E-02 11499   0.356E-01    0.162E-01
DAV:   3    -0.812717624325E+03   -0.10557E-03   -0.23206E-03 15918   0.117E-01    0.119E-01
DAV:   4    -0.812717878936E+03   -0.25461E-03   -0.57027E-04 14289   0.136E-01    0.171E-01
DAV:   5    -0.812717478772E+03    0.40016E-03   -0.19474E-04 12417   0.975E-02    0.492E-02
DAV:   6    -0.812717501066E+03   -0.22293E-04   -0.33542E-04 11868   0.377E-02    0.200E-02
DAV:   7    -0.812717503675E+03   -0.26095E-05   -0.44654E-05 10905   0.125E-02
 136 F= -.81271750E+03 E0= -.81270850E+03  d E =-.198448E-02  mag=     0.9059
       N       E                     dE             d eps       ncg     rms          rms(c)
DAV:   1    -0.812717298276E+03    0.20279E-03   -0.22551E-01 10998   0.827E-01    0.775E-02
DAV:   2    -0.812717989662E+03   -0.69139E-03   -0.71723E-03 11823   0.145E-01    0.610E-02
DAV:   3    -0.812718042359E+03   -0.52697E-04   -0.43709E-04 16071   0.665E-02    0.766E-02
DAV:   4    -0.812717993492E+03    0.48868E-04   -0.83285E-05 12372   0.525E-02    0.360E-02
DAV:   5    -0.812717982072E+03    0.11420E-04   -0.70131E-05 10635   0.185E-02    0.131E-02
DAV:   6    -0.812717983086E+03   -0.10144E-05   -0.18843E-05  8772   0.104E-02
 137 F= -.81271798E+03 E0= -.81270897E+03  d E =-.479411E-03  mag=     0.9060
       N       E                     dE             d eps       ncg     rms          rms(c)
DAV:   1    -0.812712913248E+03    0.50688E-02   -0.20324E+00 10956   0.248E+00    0.226E-01
DAV:   2    -0.812719041564E+03   -0.61283E-02   -0.64194E-02 11499   0.428E-01    0.176E-01
DAV:   3    -0.812719410411E+03   -0.36885E-03   -0.36481E-03 16539   0.175E-01    0.206E-01
DAV:   4    -0.812719112229E+03    0.29818E-03   -0.70689E-04 14760   0.148E-01    0.116E-01
DAV:   5    -0.812718963374E+03    0.14885E-03   -0.57438E-04 11820   0.589E-02    0.375E-02
DAV:   6    -0.812718976043E+03   -0.12668E-04   -0.21776E-04 12417   0.308E-02    0.238E-02
DAV:   7    -0.812718980625E+03   -0.45823E-05   -0.27038E-05  9825   0.153E-02
 138 F= -.81271898E+03 E0= -.81271007E+03  d E =-.147695E-02  mag=     0.9067
       N       E                     dE             d eps       ncg     rms          rms(c)
DAV:   1    -0.812694720414E+03    0.24256E-01   -0.81270E+00 10938   0.496E+00    0.453E-01
DAV:   2    -0.812719276691E+03   -0.24556E-01   -0.25665E-01 11580   0.861E-01    0.355E-01
DAV:   3    -0.812720715650E+03   -0.14390E-02   -0.14915E-02 16539   0.365E-01    0.412E-01
DAV:   4    -0.812719533444E+03    0.11822E-02   -0.28684E-03 15270   0.298E-01    0.229E-01
DAV:   5    -0.812718943086E+03    0.59036E-03   -0.23305E-03 12525   0.122E-01    0.746E-02
DAV:   6    -0.812718994356E+03   -0.51271E-04   -0.90641E-04 12993   0.626E-02    0.477E-02
DAV:   7    -0.812719010953E+03   -0.16597E-04   -0.13440E-04 13821   0.316E-02    0.259E-02
DAV:   8    -0.812719033893E+03   -0.22939E-04   -0.51966E-05 10851   0.146E-02    0.197E-02
DAV:   9    -0.812719046972E+03   -0.13080E-04   -0.68878E-06  8313   0.145E-02    0.689E-03
DAV:  10    -0.812719054481E+03   -0.75089E-05   -0.73425E-06  8277   0.724E-03
 139 F= -.81271905E+03 E0= -.81271031E+03  d E =-.155081E-02  mag=     0.9088
       N       E                     dE             d eps       ncg     rms          rms(c)
DAV:   1    -0.812714014729E+03    0.50322E-02   -0.17838E+00 10947   0.232E+00    0.211E-01
DAV:   2    -0.812719388975E+03   -0.53742E-02   -0.56359E-02 11508   0.400E-01    0.164E-01
DAV:   3    -0.812719717582E+03   -0.32861E-03   -0.31406E-03 16629   0.159E-01    0.178E-01
DAV:   4    -0.812719464829E+03    0.25275E-03   -0.59986E-04 14616   0.138E-01    0.110E-01
DAV:   5    -0.812719342448E+03    0.12238E-03   -0.48625E-04 12084   0.569E-02    0.348E-02
DAV:   6    -0.812719353700E+03   -0.11251E-04   -0.20088E-04 12363   0.288E-02    0.220E-02
DAV:   7    -0.812719354032E+03   -0.33245E-06   -0.23538E-05  9024   0.137E-02
 140 F= -.81271935E+03 E0= -.81271048E+03  d E =-.185036E-02  mag=     0.9087
       N       E                     dE             d eps       ncg     rms          rms(c)
DAV:   1    -0.812719633687E+03   -0.27999E-03   -0.24670E-01 11343   0.921E-01    0.946E-02
DAV:   2    -0.812720422641E+03   -0.78895E-03   -0.86957E-03 12219   0.189E-01    0.114E-01
DAV:   3    -0.812720431962E+03   -0.93207E-05   -0.73087E-04 13848   0.847E-02    0.782E-02
DAV:   4    -0.812720475303E+03   -0.43341E-04   -0.17101E-04 13920   0.744E-02    0.878E-02
DAV:   5    -0.812720385655E+03    0.89649E-04   -0.76932E-05 12057   0.426E-02    0.330E-02
DAV:   6    -0.812720388054E+03   -0.23998E-05   -0.91347E-05 11931   0.217E-02
 141 F= -.81272039E+03 E0= -.81271146E+03  d E =-.103402E-02  mag=     0.9084
       N       E                     dE             d eps       ncg     rms          rms(c)
DAV:   1    -0.812719868396E+03    0.51726E-03   -0.31905E-01 11292   0.105E+00    0.112E-01
DAV:   2    -0.812720885970E+03   -0.10176E-02   -0.11491E-02 11958   0.212E-01    0.121E-01
DAV:   3    -0.812720913668E+03   -0.27698E-04   -0.92793E-04 14883   0.880E-02    0.867E-02
DAV:   4    -0.812721036102E+03   -0.12243E-03   -0.24263E-04 14739   0.955E-02    0.117E-01
DAV:   5    -0.812720856916E+03    0.17919E-03   -0.83863E-05 11814   0.587E-02    0.384E-02
DAV:   6    -0.812720866004E+03   -0.90888E-05   -0.12541E-04 11841   0.255E-02    0.131E-02
DAV:   7    -0.812720867369E+03   -0.13646E-05   -0.17851E-05  8466   0.767E-03
 142 F= -.81272087E+03 E0= -.81271189E+03  d E =-.151334E-02  mag=     0.9077
       N       E                     dE             d eps       ncg     rms          rms(c)
DAV:   1    -0.812720954542E+03   -0.88537E-04   -0.17495E-01 11217   0.771E-01    0.805E-02
DAV:   2    -0.812721537089E+03   -0.58255E-03   -0.61335E-03 11994   0.149E-01    0.794E-02
DAV:   3    -0.812721554985E+03   -0.17897E-04   -0.54602E-04 14460   0.784E-02    0.827E-02
DAV:   4    -0.812721524041E+03    0.30944E-04   -0.10598E-04 12354   0.634E-02    0.454E-02
DAV:   5    -0.812721500184E+03    0.23857E-04   -0.83131E-05 11796   0.231E-02    0.189E-02
DAV:   6    -0.812721502602E+03   -0.24179E-05   -0.34944E-05 10239   0.146E-02
 143 F= -.81272150E+03 E0= -.81271251E+03  d E =-.635233E-03  mag=     0.9070
       N       E                     dE             d eps       ncg     rms          rms(c)
DAV:   1    -0.812721426859E+03    0.73325E-04   -0.58693E-02 11235   0.446E-01    0.478E-02
DAV:   2    -0.812721625831E+03   -0.19897E-03   -0.20720E-03 12174   0.859E-02    0.451E-02
DAV:   3    -0.812721628914E+03   -0.30824E-05   -0.18136E-04 13500   0.455E-02    0.499E-02
DAV:   4    -0.812721621344E+03    0.75701E-05   -0.33379E-05  9708   0.372E-02
 144 F= -.81272162E+03 E0= -.81271243E+03  d E =-.753975E-03  mag=     0.9065
       N       E                     dE             d eps       ncg     rms          rms(c)
DAV:   1    -0.812721753427E+03   -0.12451E-03   -0.95802E-02 11211   0.571E-01    0.614E-02
DAV:   2    -0.812722057013E+03   -0.30359E-03   -0.35061E-03 11940   0.103E-01    0.483E-02
DAV:   3    -0.812722071029E+03   -0.14016E-04   -0.21004E-04 15234   0.307E-02    0.345E-02
DAV:   4    -0.812722093873E+03   -0.22844E-04   -0.62576E-05 11427   0.452E-02    0.638E-02
DAV:   5    -0.812722061263E+03    0.32610E-04   -0.19903E-05  8457   0.379E-02    0.116E-02
DAV:   6    -0.812722069920E+03   -0.86572E-05   -0.29956E-05  9969   0.117E-02
 145 F= -.81272207E+03 E0= -.81271300E+03  d E =-.448576E-03  mag=     0.9059
       N       E                     dE             d eps       ncg     rms          rms(c)
DAV:   1    -0.812721648695E+03    0.41257E-03   -0.24737E-01 11274   0.917E-01    0.942E-02
DAV:   2    -0.812722446325E+03   -0.79763E-03   -0.89662E-03 11760   0.166E-01    0.733E-02
DAV:   3    -0.812722459990E+03   -0.13665E-04   -0.57675E-04 15561   0.401E-02    0.459E-02
DAV:   4    -0.812722520120E+03   -0.60130E-04   -0.62180E-05 11508   0.503E-02    0.720E-02
DAV:   5    -0.812722447920E+03    0.72200E-04   -0.44765E-05 10290   0.517E-02    0.352E-02
DAV:   6    -0.812722449324E+03   -0.14041E-05   -0.36377E-05  9897   0.235E-02
 146 F= -.81272245E+03 E0= -.81271337E+03  d E =-.827980E-03  mag=     0.9053
       N       E                     dE             d eps       ncg     rms          rms(c)
DAV:   1    -0.812718765290E+03    0.36826E-02   -0.98573E-01 11262   0.183E+00    0.188E-01
DAV:   2    -0.812721953820E+03   -0.31885E-02   -0.35742E-02 11679   0.331E-01    0.146E-01
DAV:   3    -0.812722014509E+03   -0.60689E-04   -0.22730E-03 15684   0.779E-02    0.896E-02
DAV:   4    -0.812722131785E+03   -0.11728E-03   -0.22221E-04 13893   0.821E-02    0.118E-01
DAV:   5    -0.812721987319E+03    0.14447E-03   -0.19065E-04 14367   0.958E-02    0.823E-02
DAV:   6    -0.812721948213E+03    0.39106E-04   -0.10633E-04 11409   0.519E-02    0.167E-02
DAV:   7    -0.812721966106E+03   -0.17893E-04   -0.90947E-05 11220   0.153E-02    0.136E-02
DAV:   8    -0.812721970555E+03   -0.44484E-05   -0.98098E-06  7863   0.630E-03
 147 F= -.81272197E+03 E0= -.81271282E+03  d E =-.349211E-03  mag=     0.9042
       N       E                     dE             d eps       ncg     rms          rms(c)
DAV:   1    -0.812720921248E+03    0.10449E-02   -0.49042E-01 11283   0.129E+00    0.130E-01
DAV:   2    -0.812722506722E+03   -0.15855E-02   -0.17548E-02 11967   0.232E-01    0.104E-01
DAV:   3    -0.812722544803E+03   -0.38081E-04   -0.10975E-03 15522   0.560E-02    0.664E-02
DAV:   4    -0.812722661921E+03   -0.11712E-03   -0.14379E-04 13848   0.772E-02    0.111E-01
DAV:   5    -0.812722507186E+03    0.15473E-03   -0.94468E-05 12444   0.754E-02    0.425E-02
DAV:   6    -0.812722500407E+03    0.67792E-05   -0.87468E-05 10923   0.297E-02
 148 F= -.81272250E+03 E0= -.81271336E+03  d E =-.879063E-03  mag=     0.9042
       N       E                     dE             d eps       ncg     rms          rms(c)
DAV:   1    -0.812722464356E+03    0.42830E-04   -0.11760E-02 11706   0.201E-01    0.254E-02
DAV:   2    -0.812722504508E+03   -0.40152E-04   -0.45211E-04 12030   0.370E-02    0.167E-02
DAV:   3    -0.812722506598E+03   -0.20903E-05   -0.26679E-05  9735   0.112E-02
 149 F= -.81272251E+03 E0= -.81271333E+03  d E =-.885254E-03  mag=     0.9041
       N       E                     dE             d eps       ncg     rms          rms(c)
DAV:   1    -0.812722540029E+03   -0.35521E-04   -0.11746E-01 11403   0.658E-01    0.619E-02
DAV:   2    -0.812722952811E+03   -0.41278E-03   -0.46045E-03 11787   0.122E-01    0.537E-02
DAV:   3    -0.812722970816E+03   -0.18005E-04   -0.23730E-04 14838   0.485E-02    0.459E-02
DAV:   4    -0.812722966676E+03    0.41401E-05   -0.80729E-05 12291   0.402E-02
 150 F= -.81272297E+03 E0= -.81271363E+03  d E =-.460077E-03  mag=     0.9042
       N       E                     dE             d eps       ncg     rms          rms(c)
DAV:   1    -0.812719785463E+03    0.31854E-02   -0.10510E+00 11325   0.197E+00    0.193E-01
DAV:   2    -0.812723581137E+03   -0.37957E-02   -0.39225E-02 12075   0.387E-01    0.217E-01
DAV:   3    -0.812723746853E+03   -0.16572E-03   -0.39576E-03 13572   0.204E-01    0.198E-01
DAV:   4    -0.812723459976E+03    0.28688E-03   -0.76938E-04 13920   0.137E-01    0.999E-02
DAV:   5    -0.812723390269E+03    0.69707E-04   -0.61604E-04 14343   0.630E-02    0.456E-02
DAV:   6    -0.812723395283E+03   -0.50139E-05   -0.22587E-04 12462   0.391E-02    0.270E-02
DAV:   7    -0.812723397366E+03   -0.20827E-05   -0.55381E-05 11613   0.152E-02
 151 F= -.81272340E+03 E0= -.81271433E+03  d E =-.890768E-03  mag=     0.9049
       N       E                     dE             d eps       ncg     rms          rms(c)
DAV:   1    -0.812723105699E+03    0.28958E-03   -0.20623E-01 11232   0.812E-01    0.829E-02
DAV:   2    -0.812723817462E+03   -0.71176E-03   -0.69020E-03 12021   0.150E-01    0.903E-02
DAV:   3    -0.812723845636E+03   -0.28173E-04   -0.52692E-04 13962   0.887E-02    0.867E-02
DAV:   4    -0.812723781382E+03    0.64254E-04   -0.11658E-04 13878   0.565E-02    0.393E-02
DAV:   5    -0.812723772855E+03    0.85267E-05   -0.10500E-04 11760   0.182E-02    0.123E-02
DAV:   6    -0.812723773373E+03   -0.51835E-06   -0.16792E-05  8289   0.106E-02
 152 F= -.81272377E+03 E0= -.81271473E+03  d E =-.376007E-03  mag=     0.9053
       N       E                     dE             d eps       ncg     rms          rms(c)
DAV:   1    -0.812723038082E+03    0.73477E-03   -0.28378E-01 11154   0.951E-01    0.948E-02
DAV:   2    -0.812723971115E+03   -0.93303E-03   -0.96594E-03 11850   0.168E-01    0.810E-02
DAV:   3    -0.812724030165E+03   -0.59050E-04   -0.53914E-04 15768   0.732E-02    0.884E-02
DAV:   4    -0.812723981836E+03    0.48329E-04   -0.12873E-04 13335   0.656E-02    0.545E-02
DAV:   5    -0.812723953636E+03    0.28200E-04   -0.11105E-04 11163   0.242E-02    0.149E-02
DAV:   6    -0.812723954783E+03   -0.11471E-05   -0.34281E-05  9915   0.129E-02
 153 F= -.81272395E+03 E0= -.81271495E+03  d E =-.557417E-03  mag=     0.9058
       N       E                     dE             d eps       ncg     rms          rms(c)
DAV:   1    -0.812723561063E+03    0.39257E-03   -0.28042E-01 11181   0.983E-01    0.961E-02
DAV:   2    -0.812724508186E+03   -0.94712E-03   -0.10315E-02 11787   0.180E-01    0.801E-02
DAV:   3    -0.812724560192E+03   -0.52005E-04   -0.66893E-04 15612   0.615E-02    0.708E-02
DAV:   4    -0.812724573510E+03   -0.13318E-04   -0.13525E-04 12768   0.683E-02    0.737E-02
DAV:   5    -0.812724511211E+03    0.62299E-04   -0.49963E-05 10338   0.449E-02    0.242E-02
DAV:   6    -0.812724514152E+03   -0.29411E-05   -0.77812E-05 10500   0.191E-02
 154 F= -.81272451E+03 E0= -.81271554E+03  d E =-.559370E-03  mag=     0.9059
       N       E                     dE             d eps       ncg     rms          rms(c)
DAV:   1    -0.812724385816E+03    0.12539E-03   -0.54882E-02 11226   0.434E-01    0.445E-02
DAV:   2    -0.812724575423E+03   -0.18961E-03   -0.20505E-03 11751   0.808E-02    0.365E-02
DAV:   3    -0.812724591321E+03   -0.15898E-04   -0.14185E-04 14352   0.337E-02    0.388E-02
DAV:   4    -0.812724583072E+03    0.82494E-05   -0.27668E-05  9375   0.315E-02
 155 F= -.81272458E+03 E0= -.81271542E+03  d E =-.628289E-03  mag=     0.9059
       N       E                     dE             d eps       ncg     rms          rms(c)
DAV:   1    -0.812723980528E+03    0.61079E-03   -0.31429E-01 11265   0.105E+00    0.999E-02
DAV:   2    -0.812725101690E+03   -0.11212E-02   -0.12026E-02 11697   0.188E-01    0.771E-02
DAV:   3    -0.812725123250E+03   -0.21560E-04   -0.70395E-04 15792   0.457E-02    0.527E-02
DAV:   4    -0.812725226681E+03   -0.10343E-03   -0.10785E-04 12858   0.711E-02    0.982E-02
DAV:   5    -0.812725085751E+03    0.14093E-03   -0.52898E-05 10635   0.540E-02    0.252E-02
DAV:   6    -0.812725093576E+03   -0.78256E-05   -0.76379E-05 10491   0.177E-02
 156 F= -.81272509E+03 E0= -.81271603E+03  d E =-.510505E-03  mag=     0.9053
       N       E                     dE             d eps       ncg     rms          rms(c)
DAV:   1    -0.812724070703E+03    0.10150E-02   -0.35495E-01 11286   0.112E+00    0.106E-01
DAV:   2    -0.812725342971E+03   -0.12723E-02   -0.13625E-02 11607   0.201E-01    0.805E-02
DAV:   3    -0.812725361913E+03   -0.18942E-04   -0.77815E-04 16125   0.562E-02    0.634E-02
DAV:   4    -0.812725461944E+03   -0.10003E-03   -0.13223E-04 13308   0.754E-02    0.946E-02
DAV:   5    -0.812725320361E+03    0.14158E-03   -0.58713E-05 10608   0.468E-02    0.232E-02
DAV:   6    -0.812725329596E+03   -0.92343E-05   -0.84866E-05 10590   0.180E-02
 157 F= -.81272533E+03 E0= -.81271618E+03  d E =-.746524E-03  mag=     0.9045
       N       E                     dE             d eps       ncg     rms          rms(c)
DAV:   1    -0.812725012765E+03    0.30760E-03   -0.15256E-01 11847   0.828E-01    0.787E-02
DAV:   2    -0.812725723312E+03   -0.71055E-03   -0.78187E-03 11724   0.162E-01    0.695E-02
DAV:   3    -0.812725731807E+03   -0.84944E-05   -0.48309E-04 14892   0.555E-02    0.514E-02
DAV:   4    -0.812725813112E+03   -0.81305E-04   -0.13539E-04 13047   0.643E-02    0.803E-02
DAV:   5    -0.812725714488E+03    0.98624E-04   -0.36298E-05  9816   0.408E-02    0.211E-02
DAV:   6    -0.812725721061E+03   -0.65727E-05   -0.57261E-05 10410   0.164E-02
 158 F= -.81272572E+03 E0= -.81271649E+03  d E =-.391465E-03  mag=     0.9036