<?xml version="1.0" encoding="ISO-8859-1"?>
<modeling>
 <generator>
  <i name="program" type="string">vasp </i>
  <i name="version" type="string">5.4.1  </i>
  <i name="subversion" type="string">24Jun15 (build Dec 01 2017 17:33:57) complex                          parallel </i>
  <i name="platform" type="string">LinuxIFC </i>
  <i name="date" type="string">2019 06 22 </i>
  <i name="time" type="string">13:13:43 </i>
 </generator>
 <incar>
  <i type="string" name="SYSTEM"> Sr Ti O3  (Pm-3m) ~ C:/Users/Amar-Deep.</i>
  <i type="int" name="ISTART">     0</i>
  <i type="string" name="PREC">accurate</i>
  <i type="string" name="ALGO"> N</i>
  <i type="logical" name="ADDGRID"> F  </i>
  <i type="int" name="ISPIN">     2</i>
  <i type="int" name="ICHARG">     2</i>
  <i type="int" name="INIWAV">     1</i>
  <i type="int" name="NELM">   330</i>
  <i type="int" name="NELMIN">     2</i>
  <i type="int" name="IBRION">     2</i>
  <i name="EDIFF">      0.00001000</i>
  <i name="EDIFFG">     -0.02000000</i>
  <i type="int" name="NSW">   400</i>
  <i type="int" name="ISIF">     2</i>
  <i type="int" name="NBLOCK">     1</i>
  <i name="ENCUT">    500.00000000</i>
  <i type="logical" name="LREAL"> F  </i>
  <i type="int" name="ISMEAR">     0</i>
  <i name="SIGMA">      0.10000000</i>
  <i type="int" name="NWRITE">     1</i>
  <i type="logical" name="LWAVE"> F  </i>
  <i type="logical" name="LCHARG"> F  </i>
  <v type="int" name="KPOINT_BSE">    -1     0     0     0</v>
  <i type="int" name="NELM">   330</i>
  <i type="int" name="VOSKOWN">     1</i>
  <i type="logical" name="LHYPERFINE"> F  </i>
  <i type="logical" name="LDIPOL"> T  </i>
  <i type="int" name="IDIPOL">     3</i>
 </incar>
 <kpoints>
  <generation param="Gamma">
   <v type="int" name="divisions">       3        3        1 </v>
   <v name="usershift">      0.00000000       0.00000000       0.00000000 </v>
   <v name="genvec1">      0.33333333       0.00000000       0.00000000 </v>
   <v name="genvec2">      0.00000000       0.33333333       0.00000000 </v>
   <v name="genvec3">      0.00000000       0.00000000       1.00000000 </v>
   <v name="shift">      0.00000000       0.00000000       0.00000000 </v>
  </generation>
  <varray name="kpointlist" >
   <v>       0.00000000       0.00000000       0.00000000 </v>
   <v>       0.33333333       0.00000000       0.00000000 </v>
   <v>       0.00000000       0.33333333       0.00000000 </v>
   <v>       0.33333333       0.33333333       0.00000000 </v>
   <v>      -0.33333333       0.33333333       0.00000000 </v>
  </varray>
  <varray name="weights" >
   <v>       0.11111111 </v>
   <v>       0.22222222 </v>
   <v>       0.22222222 </v>
   <v>       0.22222222 </v>
   <v>       0.22222222 </v>
  </varray>
 </kpoints>
 <parameters>
  <separator name="general" >
   <i type="string" name="SYSTEM">Sr Ti O3  (Pm-3m) ~ C:/Users/Amar-Deep.</i>
   <i type="logical" name="LCOMPAT"> F  </i>
  </separator>
  <separator name="electronic" >
   <i type="string" name="PREC">accura</i>
   <i name="ENMAX">    500.00000000</i>
   <i name="ENAUG">    644.87300000</i>
   <i name="EDIFF">      0.00001000</i>
   <i type="int" name="IALGO">    38</i>
   <i type="int" name="IWAVPR">    11</i>
   <i type="int" name="NBANDS">   537</i>
   <i name="NELECT">    807.00000000</i>
   <i type="int" name="TURBO">     0</i>
   <i type="int" name="IRESTART">     0</i>
   <i type="int" name="NREBOOT">     0</i>
   <i type="int" name="NMIN">     0</i>
   <i name="EREF">      0.00000000</i>
   <separator name="electronic smearing" >
    <i type="int" name="ISMEAR">     0</i>
    <i name="SIGMA">      0.10000000</i>
    <i name="KSPACING">      0.50000000</i>
    <i type="logical" name="KGAMMA"> T  </i>
   </separator>
   <separator name="electronic projectors" >
    <i type="logical" name="LREAL"> F  </i>
    <v name="ROPT">      0.00000000      0.00000000      0.00000000      0.00000000      0.00000000</v>
    <i type="int" name="LMAXPAW">  -100</i>
    <i type="int" name="LMAXMIX">     2</i>
    <i type="logical" name="NLSPLINE"> F  </i>
   </separator>
   <separator name="electronic startup" >
    <i type="int" name="ISTART">     0</i>
    <i type="int" name="ICHARG">     2</i>
    <i type="int" name="INIWAV">     1</i>
   </separator>
   <separator name="electronic spin" >
    <i type="int" name="ISPIN">     2</i>
    <i type="logical" name="LNONCOLLINEAR"> F  </i>
    <v name="MAGMOM">      1.00000000      1.00000000      1.00000000      1.00000000      1.00000000      1.00000000      1.00000000      1.00000000      1.00000000      1.00000000      1.00000000      1.00000000      1.00000000      1.00000000      1.00000000      1.00000000      1.00000000      1.00000000      1.00000000      1.00000000
      1.00000000      1.00000000      1.00000000      1.00000000      1.00000000      1.00000000      1.00000000      1.00000000      1.00000000      1.00000000      1.00000000      1.00000000      1.00000000      1.00000000      1.00000000      1.00000000      1.00000000      1.00000000      1.00000000      1.00000000
      1.00000000      1.00000000      1.00000000      1.00000000      1.00000000      1.00000000      1.00000000      1.00000000      1.00000000      1.00000000      1.00000000      1.00000000      1.00000000      1.00000000      1.00000000      1.00000000      1.00000000      1.00000000      1.00000000      1.00000000
      1.00000000      1.00000000      1.00000000      1.00000000      1.00000000      1.00000000      1.00000000      1.00000000      1.00000000      1.00000000      1.00000000      1.00000000      1.00000000      1.00000000      1.00000000      1.00000000      1.00000000      1.00000000      1.00000000      1.00000000
      1.00000000      1.00000000      1.00000000      1.00000000      1.00000000      1.00000000      1.00000000      1.00000000      1.00000000      1.00000000      1.00000000      1.00000000      1.00000000      1.00000000      1.00000000      1.00000000      1.00000000      1.00000000      1.00000000      1.00000000
      1.00000000      1.00000000      1.00000000      1.00000000</v>
    <i name="NUPDOWN">     -1.00000000</i>
    <i type="logical" name="LSORBIT"> F  </i>
    <v name="SAXIS">      0.00000000      0.00000000      1.00000000</v>
    <i type="logical" name="LSPIRAL"> F  </i>
    <v name="QSPIRAL">      0.00000000      0.00000000      0.00000000</v>
    <i type="logical" name="LZEROZ"> F  </i>
   </separator>
   <separator name="electronic exchange-correlation" >
    <i type="logical" name="LASPH"> F  </i>
    <i type="logical" name="LMETAGGA"> F  </i>
   </separator>
   <separator name="electronic convergence" >
    <i type="int" name="NELM">   330</i>
    <i type="int" name="NELMDL">    -5</i>
    <i type="int" name="NELMIN">     2</i>
    <i name="ENINI">    500.00000000</i>
    <separator name="electronic convergence detail" >
     <i type="logical" name="LDIAG"> T  </i>
     <i type="logical" name="LSUBROT"> F  </i>
     <i name="WEIMIN">      0.00100000</i>
     <i name="EBREAK">      0.00000000</i>
     <i name="DEPER">      0.30000000</i>
     <i type="int" name="NRMM">     4</i>
     <i name="TIME">      0.40000000</i>
    </separator>
   </separator>
   <separator name="electronic mixer" >
    <i name="AMIX">      0.40000000</i>
    <i name="BMIX">      1.00000000</i>
    <i name="AMIN">      0.10000000</i>
    <i name="AMIX_MAG">      1.60000000</i>
    <i name="BMIX_MAG">      1.00000000</i>
    <separator name="electronic mixer details" >
     <i type="int" name="IMIX">     4</i>
     <i type="logical" name="MIXFIRST"> F  </i>
     <i type="int" name="MAXMIX">   -45</i>
     <i name="WC">    100.00000000</i>
     <i type="int" name="INIMIX">     1</i>
     <i type="int" name="MIXPRE">     1</i>
     <i type="int" name="MREMOVE">     5</i>
    </separator>
   </separator>
   <separator name="electronic dipolcorrection" >
    <i type="logical" name="LDIPOL"> T  </i>
    <i type="logical" name="LMONO"> F  </i>
    <i type="int" name="IDIPOL">     3</i>
    <i name="EPSILON">      1.00000000</i>
    <v name="DIPOL">   -100.00000000   -100.00000000   -100.00000000</v>
    <i name="EFIELD">      0.00000000</i>
   </separator>
  </separator>
  <separator name="grids" >
   <i type="int" name="NGX">    60</i>
   <i type="int" name="NGY">    60</i>
   <i type="int" name="NGZ">   216</i>
   <i type="int" name="NGXF">   120</i>
   <i type="int" name="NGYF">   120</i>
   <i type="int" name="NGZF">   432</i>
   <i type="logical" name="ADDGRID"> F  </i>
  </separator>
  <separator name="ionic" >
   <i type="int" name="NSW">   400</i>
   <i type="int" name="IBRION">     2</i>
   <i type="int" name="ISIF">     2</i>
   <i name="PSTRESS">      0.00000000</i>
   <i name="EDIFFG">     -0.02000000</i>
   <i type="int" name="NFREE">     1</i>
   <i name="POTIM">      0.50000000</i>
   <i name="SMASS">     -3.00000000</i>
   <i name="SCALEE">      1.00000000</i>
  </separator>
  <separator name="ionic md" >
   <i name="TEBEG">      0.00010000</i>
   <i name="TEEND">      0.00010000</i>
   <i type="int" name="NBLOCK">     1</i>
   <i type="int" name="KBLOCK">   400</i>
   <i type="int" name="NPACO">   256</i>
   <i name="APACO">     16.00000000</i>
  </separator>
  <separator name="symmetry" >
   <i type="int" name="ISYM">     2</i>
   <i name="SYMPREC">      0.00001000</i>
  </separator>
  <separator name="dos" >
   <i type="logical" name="LORBIT"> F  </i>
   <v name="RWIGS">     -1.00000000     -1.00000000     -1.00000000     -1.00000000     -1.00000000</v>
   <i type="int" name="NEDOS">   301</i>
   <i name="EMIN">     10.00000000</i>
   <i name="EMAX">    -10.00000000</i>
   <i name="EFERMI">      0.00000000</i>
  </separator>
  <separator name="writing" >
   <i type="int" name="NWRITE">     1</i>
   <i type="logical" name="LWAVE"> F  </i>
   <i type="logical" name="LCHARG"> F  </i>
   <i type="logical" name="LPARD"> F  </i>
   <i type="logical" name="LVTOT"> F  </i>
   <i type="logical" name="LVHAR"> F  </i>
   <i type="logical" name="LELF"> F  </i>
   <i type="logical" name="LOPTICS"> F  </i>
   <v name="STM">      0.00000000      0.00000000      0.00000000      0.00000000      0.00000000      0.00000000      0.00000000</v>
  </separator>
  <separator name="performance" >
   <i type="int" name="NPAR">     3</i>
   <i type="int" name="NSIM">     4</i>
   <i type="int" name="NBLK">    -1</i>
   <i type="logical" name="LPLANE"> T  </i>
   <i type="logical" name="LSCALAPACK"> F  </i>
   <i type="logical" name="LSCAAWARE"> F  </i>
   <i type="logical" name="LSCALU"> F  </i>
   <i type="logical" name="LASYNC"> F  </i>
   <i type="logical" name="LORBITALREAL"> F  </i>
  </separator>
  <separator name="miscellaneous" >
   <i type="int" name="IDIOT">     3</i>
   <i type="logical" name="LMUSIC"> F  </i>
   <v name="POMASS">     87.62000000     47.88000000     16.00000000     12.01100000      1.00000000</v>
   <v name="DARWINR">      0.00000000      0.00000000      0.00000000      0.00000000      0.00000000</v>
   <v name="DARWINV">      1.00000000      1.00000000      1.00000000      1.00000000      1.00000000</v>
   <i type="logical" name="LCORR"> T  </i>
  </separator>
  <i type="logical" name="GGA_COMPAT"> T  </i>
  <i type="logical" name="LBERRY"> F  </i>
  <i type="int" name="ICORELEVEL">     0</i>
  <i type="logical" name="LDAU"> F  </i>
  <i type="int" name="I_CONSTRAINED_M">     0</i>
  <separator name="electronic exchange-correlation" >
   <i type="string" name="GGA">--</i>
   <i type="int" name="VOSKOWN">     1</i>
   <i type="logical" name="LHFCALC"> F  </i>
   <i type="string" name="PRECFOCK"></i>
   <i type="logical" name="LSYMGRAD"> F  </i>
   <i type="logical" name="LHFONE"> F  </i>
   <i type="logical" name="LRHFCALC"> F  </i>
   <i type="logical" name="LTHOMAS"> F  </i>
   <i type="logical" name="LMODELHF"> F  </i>
   <i name="ENCUT4O">     -1.00000000</i>
   <i type="int" name="EXXOEP">     0</i>
   <i type="int" name="FOURORBIT">     0</i>
   <i name="AEXX">      0.00000000</i>
   <i name="HFALPHA">      0.00000000</i>
   <i name="MCALPHA">      0.00000000</i>
   <i name="ALDAX">      1.00000000</i>
   <i name="AGGAX">      1.00000000</i>
   <i name="ALDAC">      1.00000000</i>
   <i name="AGGAC">      1.00000000</i>
   <i type="int" name="NKREDX">     1</i>
   <i type="int" name="NKREDY">     1</i>
   <i type="int" name="NKREDZ">     1</i>
   <i type="logical" name="SHIFTRED"> F  </i>
   <i type="logical" name="ODDONLY"> F  </i>
   <i type="logical" name="EVENONLY"> F  </i>
   <i type="int" name="LMAXFOCK">     0</i>
   <i type="int" name="NMAXFOCKAE">     0</i>
   <i type="logical" name="LFOCKAEDFT"> F  </i>
   <i name="HFSCREEN">      0.00000000</i>
   <i name="HFSCREENC">      0.00000000</i>
   <i type="int" name="NBANDSGWLOW">     0</i>
  </separator>
  <separator name="vdW DFT" >
   <i type="logical" name="LUSE_VDW"> F  </i>
   <i name="Zab_VDW">     -0.84910000</i>
   <i name="PARAM1">      0.12340000</i>
   <i name="PARAM2">      1.00000000</i>
   <i name="PARAM3">      0.00000000</i>
  </separator>
  <separator name="model GW" >
   <i type="int" name="MODEL_GW">     0</i>
   <i name="MODEL_EPS0">     10.40863555</i>
   <i name="MODEL_ALPHA">      1.00000000</i>
  </separator>
  <separator name="linear response parameters" >
   <i type="logical" name="LEPSILON"> F  </i>
   <i type="logical" name="LRPA"> F  </i>
   <i type="logical" name="LNABLA"> F  </i>
   <i type="logical" name="LVEL"> F  </i>
   <i type="int" name="KINTER">     0</i>
   <i name="CSHIFT">      0.10000000</i>
   <i name="OMEGAMAX">     -1.00000000</i>
   <i name="DEG_THRESHOLD">      0.00200000</i>
  </separator>
  <separator name="orbital magnetization" >
   <i type="logical" name="NUCIND"> F  </i>
   <v name="MAGPOS">      0.00000000      0.00000000      0.00000000</v>
   <i type="logical" name="LNICSALL"> T  </i>
   <i type="logical" name="ORBITALMAG"> F  </i>
   <i type="logical" name="LMAGBLOCH"> F  </i>
   <i type="logical" name="LCHIMAG"> F  </i>
   <i type="logical" name="LGAUGE"> T  </i>
   <i type="int" name="MAGATOM">     0</i>
   <v name="MAGDIPOL">      0.00000000      0.00000000      0.00000000</v>
   <v name="AVECCONST">      0.00000000      0.00000000      0.00000000</v>
  </separator>
  <separator name="response functions" >
   <i type="logical" name="LADDER"> F  </i>
   <i type="logical" name="LFXC"> F  </i>
   <i type="logical" name="LHARTREE"> T  </i>
   <i type="int" name="IBSE">     0</i>
   <v type="int" name="KPOINT">    -1     0     0     0</v>
   <i type="logical" name="LTCTE"> F  </i>
   <i type="logical" name="LTETE"> F  </i>
   <i type="logical" name="LTRIPLET"> F  </i>
   <i type="logical" name="LFXCEPS"> F  </i>
   <i type="logical" name="LFXHEG"> F  </i>
   <i type="int" name="NATURALO">     0</i>
   <i type="logical" name="L2ORDER"> F  </i>
   <i type="logical" name="LUSEW"> F  </i>
   <i name="ENCUTGW">     -2.00000000</i>
   <i name="ENCUTGWSOFT">     -2.00000000</i>
   <i name="ENCUTLF">     -1.00000000</i>
   <i type="int" name="LMAXMP2">    -1</i>
   <i name="SCISSOR">      0.00000000</i>
   <i type="int" name="NOMEGA">     0</i>
   <i type="int" name="NOMEGAR">     0</i>
   <i type="int" name="NBANDSGW">    -1</i>
   <i type="int" name="NBANDSO">    -1</i>
   <i type="int" name="NBANDSV">    -1</i>
   <i type="int" name="NELM">   330</i>
   <i type="int" name="NELMHF">     1</i>
   <i type="int" name="DIM">     3</i>
   <i type="int" name="ANTIRES">     0</i>
   <i name="OMEGAMAX">    -30.00000000</i>
   <i name="OMEGAMIN">    -30.00000000</i>
   <i name="OMEGATL">   -200.00000000</i>
   <i type="int" name="OMEGAGRID">     0</i>
   <i name="CSHIFT">     -0.10000000</i>
   <i type="logical" name="SELFENERGY"> F  </i>
   <i type="logical" name="LSPECTRAL"> F  </i>
   <i type="logical" name="LSPECTRALGW"> F  </i>
   <i type="logical" name="LSINGLES"> F  </i>
   <i type="logical" name="LFERMIGW"> F  </i>
   <i type="logical" name="ODDONLYGW"> F  </i>
   <i type="logical" name="EVENONLYGW"> F  </i>
   <i type="int" name="NKREDLFX">     1</i>
   <i type="int" name="NKREDLFY">     1</i>
   <i type="int" name="NKREDLFZ">     1</i>
   <i type="int" name="MAXMEM">  1800</i>
   <i type="int" name="TELESCOPE">     0</i>
   <i type="int" name="TAUPAR">     1</i>
   <i type="int" name="OMEGAPAR">    -1</i>
   <i name="LAMBDA">      1.00000000</i>
  </separator>
  <separator name="External order field" >
   <i name="OFIELD_KAPPA">      0.00000000</i>
   <v name="OFIELD_K">      0.00000000      0.00000000      0.00000000</v>
   <i name="OFIELD_Q6_NEAR">      0.00000000</i>
   <i name="OFIELD_Q6_FAR">      0.00000000</i>
   <i name="OFIELD_A">      0.00000000</i>
  </separator>
 </parameters>
 <atominfo>
  <atoms>     104 </atoms>
  <types>       5 </types>
  <array name="atoms" >
   <dimension dim="1">ion</dimension>
   <field type="string">element</field>
   <field type="int">atomtype</field>
   <set>
    <rc><c>Sr</c><c>   1</c></rc>
    <rc><c>Sr</c><c>   1</c></rc>
    <rc><c>Sr</c><c>   1</c></rc>
    <rc><c>Sr</c><c>   1</c></rc>
    <rc><c>Sr</c><c>   1</c></rc>
    <rc><c>Sr</c><c>   1</c></rc>
    <rc><c>Sr</c><c>   1</c></rc>
    <rc><c>Sr</c><c>   1</c></rc>
    <rc><c>Sr</c><c>   1</c></rc>
    <rc><c>Sr</c><c>   1</c></rc>
    <rc><c>Sr</c><c>   1</c></rc>
    <rc><c>Sr</c><c>   1</c></rc>
    <rc><c>Sr</c><c>   1</c></rc>
    <rc><c>Sr</c><c>   1</c></rc>
    <rc><c>Sr</c><c>   1</c></rc>
    <rc><c>Sr</c><c>   1</c></rc>
    <rc><c>Sr</c><c>   1</c></rc>
    <rc><c>Sr</c><c>   1</c></rc>
    <rc><c>Sr</c><c>   1</c></rc>
    <rc><c>Sr</c><c>   1</c></rc>
    <rc><c>Ti</c><c>   2</c></rc>
    <rc><c>Ti</c><c>   2</c></rc>
    <rc><c>Ti</c><c>   2</c></rc>
    <rc><c>Ti</c><c>   2</c></rc>
    <rc><c>Ti</c><c>   2</c></rc>
    <rc><c>Ti</c><c>   2</c></rc>
    <rc><c>Ti</c><c>   2</c></rc>
    <rc><c>Ti</c><c>   2</c></rc>
    <rc><c>Ti</c><c>   2</c></rc>
    <rc><c>Ti</c><c>   2</c></rc>
    <rc><c>Ti</c><c>   2</c></rc>
    <rc><c>Ti</c><c>   2</c></rc>
    <rc><c>Ti</c><c>   2</c></rc>
    <rc><c>Ti</c><c>   2</c></rc>
    <rc><c>Ti</c><c>   2</c></rc>
    <rc><c>Ti</c><c>   2</c></rc>
    <rc><c>Ti</c><c>   2</c></rc>
    <rc><c>Ti</c><c>   2</c></rc>
    <rc><c>Ti</c><c>   2</c></rc>
    <rc><c>Ti</c><c>   2</c></rc>
    <rc><c>O </c><c>   3</c></rc>
    <rc><c>O </c><c>   3</c></rc>
    <rc><c>O </c><c>   3</c></rc>
    <rc><c>O </c><c>   3</c></rc>
    <rc><c>O </c><c>   3</c></rc>
    <rc><c>O </c><c>   3</c></rc>
    <rc><c>O </c><c>   3</c></rc>
    <rc><c>O </c><c>   3</c></rc>
    <rc><c>O </c><c>   3</c></rc>
    <rc><c>O </c><c>   3</c></rc>
    <rc><c>O </c><c>   3</c></rc>
    <rc><c>O </c><c>   3</c></rc>
    <rc><c>O </c><c>   3</c></rc>
    <rc><c>O </c><c>   3</c></rc>
    <rc><c>O </c><c>   3</c></rc>
    <rc><c>O </c><c>   3</c></rc>
    <rc><c>O </c><c>   3</c></rc>
    <rc><c>O </c><c>   3</c></rc>
    <rc><c>O </c><c>   3</c></rc>
    <rc><c>O </c><c>   3</c></rc>
    <rc><c>O </c><c>   3</c></rc>
    <rc><c>O </c><c>   3</c></rc>
    <rc><c>O </c><c>   3</c></rc>
    <rc><c>O </c><c>   3</c></rc>
    <rc><c>O </c><c>   3</c></rc>
    <rc><c>O </c><c>   3</c></rc>
    <rc><c>O </c><c>   3</c></rc>
    <rc><c>O </c><c>   3</c></rc>
    <rc><c>O </c><c>   3</c></rc>
    <rc><c>O </c><c>   3</c></rc>
    <rc><c>O </c><c>   3</c></rc>
    <rc><c>O </c><c>   3</c></rc>
    <rc><c>O </c><c>   3</c></rc>
    <rc><c>O </c><c>   3</c></rc>
    <rc><c>O </c><c>   3</c></rc>
    <rc><c>O </c><c>   3</c></rc>
    <rc><c>O </c><c>   3</c></rc>
    <rc><c>O </c><c>   3</c></rc>
    <rc><c>O </c><c>   3</c></rc>
    <rc><c>O </c><c>   3</c></rc>
    <rc><c>O </c><c>   3</c></rc>
    <rc><c>O </c><c>   3</c></rc>
    <rc><c>O </c><c>   3</c></rc>
    <rc><c>O </c><c>   3</c></rc>
    <rc><c>O </c><c>   3</c></rc>
    <rc><c>O </c><c>   3</c></rc>
    <rc><c>O </c><c>   3</c></rc>
    <rc><c>O </c><c>   3</c></rc>
    <rc><c>O </c><c>   3</c></rc>
    <rc><c>O </c><c>   3</c></rc>
    <rc><c>O </c><c>   3</c></rc>
    <rc><c>O </c><c>   3</c></rc>
    <rc><c>O </c><c>   3</c></rc>
    <rc><c>O </c><c>   3</c></rc>
    <rc><c>O </c><c>   3</c></rc>
    <rc><c>O </c><c>   3</c></rc>
    <rc><c>O </c><c>   3</c></rc>
    <rc><c>O </c><c>   3</c></rc>
    <rc><c>O </c><c>   3</c></rc>
    <rc><c>O </c><c>   3</c></rc>
    <rc><c>C </c><c>   4</c></rc>
    <rc><c>H </c><c>   5</c></rc>
    <rc><c>H </c><c>   5</c></rc>
    <rc><c>H </c><c>   5</c></rc>
   </set>
  </array>
  <array name="atomtypes" >
   <dimension dim="1">type</dimension>
   <field type="int">atomspertype</field>
   <field type="string">element</field>
   <field>mass</field>
   <field>valence</field>
   <field type="string">pseudopotential</field>
   <set>
    <rc><c>  20</c><c>Sr</c><c>     87.62000000</c><c>     10.00000000</c><c>  PAW_PBE Sr_sv 07Sep2000               </c></rc>
    <rc><c>  20</c><c>Ti</c><c>     47.88000000</c><c>     12.00000000</c><c>  PAW_PBE Ti_sv 26Sep2005               </c></rc>
    <rc><c>  60</c><c>O </c><c>     16.00000000</c><c>      6.00000000</c><c>  PAW_PBE O 08Apr2002                   </c></rc>
    <rc><c>   1</c><c>C </c><c>     12.01100000</c><c>      4.00000000</c><c>  PAW_PBE C 08Apr2002                   </c></rc>
    <rc><c>   3</c><c>H </c><c>      1.00000000</c><c>      1.00000000</c><c>  PAW_PBE H 15Jun2001                   </c></rc>
   </set>
  </array>
 </atominfo>
 <structure name="initialpos" >
  <crystal>
   <varray name="basis" >
    <v>       7.81059980       0.00000000       0.00000000 </v>
    <v>       0.00000000       7.81059980       0.00000000 </v>
    <v>       0.00000000       0.00000000      29.57379913 </v>
   </varray>
   <i name="volume">   1804.16349501 </i>
   <varray name="rec_basis" >
    <v>       0.12803114       0.00000000       0.00000000 </v>
    <v>       0.00000000       0.12803114       0.00000000 </v>
    <v>       0.00000000       0.00000000       0.03381371 </v>
   </varray>
  </crystal>
  <varray name="positions" >
   <v>       0.25000000       0.25000000       0.05776000 </v>
   <v>       0.25000000       0.74999998       0.05776000 </v>
   <v>       0.74999998       0.25000000       0.05776000 </v>
   <v>       0.74999998       0.74999998       0.05776000 </v>
   <v>       0.25000000       0.25000000       0.19598000 </v>
   <v>       0.25000000       0.74999998       0.19598000 </v>
   <v>       0.74999998       0.25000000       0.19598000 </v>
   <v>       0.74999998       0.74999998       0.19598000 </v>
   <v>       0.25027999       0.24997001       0.33063001 </v>
   <v>       0.25034002       0.75006000       0.33076000 </v>
   <v>       0.75037001       0.24990000       0.33068999 </v>
   <v>       0.75031000       0.75015005       0.33067000 </v>
   <v>       0.25081000       0.24991000       0.46384001 </v>
   <v>       0.25085000       0.75010005       0.46373001 </v>
   <v>       0.75086000       0.24998001       0.46387000 </v>
   <v>       0.75084003       0.75006995       0.46382001 </v>
   <v>       0.25106999       0.25041000       0.59342002 </v>
   <v>       0.25154000       0.74953997       0.59352998 </v>
   <v>       0.75225004       0.24947999       0.59368000 </v>
   <v>       0.75159003       0.75064998       0.59340003 </v>
   <v>       0.00000000       0.00000000       0.13085000 </v>
   <v>       0.00000000       0.50000000       0.13085000 </v>
   <v>       0.50000000       0.00000000       0.13085000 </v>
   <v>       0.50000000       0.50000000       0.13085000 </v>
   <v>       0.00000000       0.00000000       0.26447001 </v>
   <v>       0.00000000       0.50000000       0.26447001 </v>
   <v>       0.50000000       0.00000000       0.26447001 </v>
   <v>       0.50000000       0.50000000       0.26447001 </v>
   <v>       0.00048000       0.99993999       0.39877001 </v>
   <v>       0.00042000       0.49998001       0.39886001 </v>
   <v>       0.50054997       0.00000000       0.39886001 </v>
   <v>       0.50066001       0.49990000       0.39875998 </v>
   <v>       0.00118000       0.99998999       0.53474998 </v>
   <v>       0.00141000       0.50010003       0.53478997 </v>
   <v>       0.50121999       0.99990000       0.53489000 </v>
   <v>       0.50130998       0.49998001       0.53473999 </v>
   <v>       0.99947002       0.99978999       0.99947998 </v>
   <v>       0.99948004       0.49979002       0.99949004 </v>
   <v>       0.49946999       0.99978999       0.99949004 </v>
   <v>       0.49948001       0.49979002       0.99947998 </v>
   <v>       0.00000000       0.00000000       0.06211000 </v>
   <v>       0.00000000       0.50000000       0.06211000 </v>
   <v>       0.50000000       0.00000000       0.06211000 </v>
   <v>       0.50000000       0.50000000       0.06211000 </v>
   <v>       0.00000000       0.25000000       0.12976999 </v>
   <v>       0.00000000       0.74999998       0.12976999 </v>
   <v>       0.25000000       0.00000000       0.12976999 </v>
   <v>       0.25000000       0.50000000       0.12976999 </v>
   <v>       0.50000000       0.25000000       0.12976999 </v>
   <v>       0.50000000       0.74999998       0.12976999 </v>
   <v>       0.74999998       0.00000000       0.12976999 </v>
   <v>       0.74999998       0.50000000       0.12976999 </v>
   <v>       0.00000000       0.00000000       0.19662000 </v>
   <v>       0.00000000       0.50000000       0.19662000 </v>
   <v>       0.50000000       0.00000000       0.19662000 </v>
   <v>       0.50000000       0.50000000       0.19662000 </v>
   <v>       0.00000000       0.25000000       0.26390001 </v>
   <v>       0.00000000       0.74999998       0.26390001 </v>
   <v>       0.25000000       0.00000000       0.26390001 </v>
   <v>       0.25000000       0.50000000       0.26390001 </v>
   <v>       0.50000000       0.25000000       0.26390001 </v>
   <v>       0.50000000       0.74999998       0.26390001 </v>
   <v>       0.74999998       0.00000000       0.26390001 </v>
   <v>       0.74999998       0.50000000       0.26390001 </v>
   <v>       0.00000000       0.00015000       0.33087000 </v>
   <v>       0.00074000       0.49996999       0.33087999 </v>
   <v>       0.50073999       0.99977998       0.33087999 </v>
   <v>       0.50010998       0.50032002       0.33092001 </v>
   <v>       0.00211000       0.25011000       0.39809001 </v>
   <v>       0.99937998       0.75015005       0.39800998 </v>
   <v>       0.25061000       0.99866996       0.39794000 </v>
   <v>       0.25070000       0.50164002       0.39834999 </v>
   <v>       0.49935000       0.25016999       0.39795000 </v>
   <v>       0.50208999       0.75006000       0.39823000 </v>
   <v>       0.75068997       0.00148000       0.39816002 </v>
   <v>       0.75066000       0.49882998       0.39783000 </v>
   <v>       0.00126000       0.99988004       0.46514002 </v>
   <v>       0.99927003       0.50028004       0.46507998 </v>
   <v>       0.50054002       0.00084000       0.46510000 </v>
   <v>       0.50224002       0.49943001       0.46522999 </v>
   <v>       0.99715000       0.25012001       0.53297000 </v>
   <v>       0.00476000       0.75011000       0.53305000 </v>
   <v>       0.25105000       0.00385000       0.53315997 </v>
   <v>       0.25119000       0.49612998       0.53258003 </v>
   <v>       0.50508998       0.25009998       0.53333997 </v>
   <v>       0.49746001       0.74996000       0.53283001 </v>
   <v>       0.75098002       0.99607998       0.53289999 </v>
   <v>       0.75123002       0.50393998       0.53351997 </v>
   <v>       0.00019000       0.00033000       0.59971998 </v>
   <v>       0.00325000       0.50006996       0.59969005 </v>
   <v>       0.50151999       0.99892998       0.59981001 </v>
   <v>       0.49858001       0.50145000       0.59991998 </v>
   <v>       0.00033000       0.25015000       0.99557000 </v>
   <v>       0.00034000       0.75015005       0.99557000 </v>
   <v>       0.25036999       0.00013000       0.99557000 </v>
   <v>       0.25036999       0.50013001       0.99557000 </v>
   <v>       0.50033999       0.25015000       0.99557000 </v>
   <v>       0.50032998       0.75015005       0.99557000 </v>
   <v>       0.75037001       0.00013000       0.99557000 </v>
   <v>       0.75037001       0.50013001       0.99557000 </v>
   <v>       0.49358999       0.48504000       0.66756998 </v>
   <v>       0.40493000       0.37846000       0.66483999 </v>
   <v>       0.63058001       0.46137000       0.66866006 </v>
   <v>       0.44534001       0.61532996       0.66903994 </v>
  </varray>
 </structure>
 <calculation>
  <scstep>
   <time name="dav">   44.22   44.31</time>
   <time name="total">   44.50   44.60</time>
   <dipole>
    <v name="dipole">      0.00000000       0.00000000      -0.00554887 </v>
    <i name="Tr[quadrupol]">  -9882.16216251 </i>
    <i name="Echarged">      0.00000000 </i>
    <i name="Edipol_quadrupol">      0.00000000 </i>
    <i name="Eion">      0.00000000 </i>
   </dipole>
   <energy>
    <i name="alphaZ">   3052.23453650 </i>
    <i name="ewald"> 195983.93955978 </i>
    <i name="hartreedc">-266365.61622104 </i>
    <i name="XCdc">   3657.84279672 </i>
    <i name="pawpsdc">  58809.94257629 </i>
    <i name="pawaedc"> -58246.88729805 </i>
    <i name="eentropy">     -0.17422337 </i>
    <i name="bandstr">  -1540.24235292 </i>
    <i name="atom">  74748.29957676 </i>
    <i name="e_fr_energy">  10099.33895067 </i>
    <i name="e_wo_entrp">  10099.51317405 </i>
    <i name="e_0_energy">  10099.42606236 </i>
   </energy>
  </scstep>
  <scstep>
   <time name="dav">   47.28   47.62</time>
   <time name="total">   47.30   47.66</time>
   <dipole>
    <v name="dipole">      0.00000000       0.00000000      -0.00554887 </v>
    <i name="Tr[quadrupol]">  -9882.16216251 </i>
    <i name="Echarged">      0.00000000 </i>
    <i name="Edipol_quadrupol">      0.00000000 </i>
    <i name="Eion">      0.00000000 </i>
   </dipole>
   <energy>
    <i name="e_fr_energy">    798.31299668 </i>
    <i name="e_wo_entrp">    798.33854095 </i>
    <i name="e_0_energy">    798.32576881 </i>
   </energy>
  </scstep>
  <scstep>
   <time name="dav">   52.88   53.11</time>
   <time name="total">   52.91   53.16</time>
   <dipole>
    <v name="dipole">      0.00000000       0.00000000      -0.00554887 </v>
    <i name="Tr[quadrupol]">  -9882.16216251 </i>
    <i name="Echarged">      0.00000000 </i>
    <i name="Edipol_quadrupol">      0.00000000 </i>
    <i name="Eion">      0.00000000 </i>
   </dipole>
   <energy>
    <i name="e_fr_energy">   -818.70043397 </i>
    <i name="e_wo_entrp">   -818.70043397 </i>
    <i name="e_0_energy">   -818.70043397 </i>
   </energy>
  </scstep>
  <scstep>
   <time name="dav">   71.63   71.74</time>
   <time name="total">   71.64   71.77</time>
   <dipole>
    <v name="dipole">      0.00000000       0.00000000      -0.00554887 </v>
    <i name="Tr[quadrupol]">  -9882.16216251 </i>
    <i name="Echarged">      0.00000000 </i>
    <i name="Edipol_quadrupol">      0.00000000 </i>
    <i name="Eion">      0.00000000 </i>
   </dipole>
   <energy>
    <i name="e_fr_energy">   -976.02605680 </i>
    <i name="e_wo_entrp">   -976.02605680 </i>
    <i name="e_0_energy">   -976.02605680 </i>
   </energy>
  </scstep>
  <scstep>
   <time name="dav">   72.30   72.42</time>
   <time name="total">   73.87   74.00</time>
   <dipole>
    <v name="dipole">      0.00000000       0.00000000      -0.00554887 </v>
    <i name="Tr[quadrupol]">  -9882.16216251 </i>
    <i name="Echarged">      0.00000000 </i>
    <i name="Edipol_quadrupol">      0.00000000 </i>
    <i name="Eion">      0.00000000 </i>
   </dipole>
   <energy>
    <i name="e_fr_energy">   -990.42182362 </i>
    <i name="e_wo_entrp">   -990.42182362 </i>
    <i name="e_0_energy">   -990.42182362 </i>
   </energy>
  </scstep>
  <scstep>
   <time name="dav">   60.82   60.98</time>
   <time name="total">   62.02   62.20</time>
   <dipole>
    <v name="dipole">      0.00000000       0.00000000      -0.10013311 </v>
    <i name="Tr[quadrupol]">  -9892.75335615 </i>
    <i name="Echarged">      0.00000000 </i>
    <i name="Edipol_quadrupol">      0.00000000 </i>
    <i name="Eion">      0.00000000 </i>
   </dipole>
   <energy>
    <i name="e_fr_energy">   -722.38654494 </i>
    <i name="e_wo_entrp">   -722.35705650 </i>
    <i name="e_0_energy">   -722.37180072 </i>
   </energy>
  </scstep>
  <scstep>
   <time name="dav">   58.63   58.96</time>
   <time name="total">   59.78   60.13</time>
   <dipole>
    <v name="dipole">      0.00000000       0.00000000      -0.30911352 </v>
    <i name="Tr[quadrupol]">  -9917.87972918 </i>
    <i name="Echarged">      0.00000000 </i>
    <i name="Edipol_quadrupol">      0.00000000 </i>
    <i name="Eion">      0.00000000 </i>
   </dipole>
   <energy>
    <i name="e_fr_energy">   -733.05542035 </i>
    <i name="e_wo_entrp">   -733.05542026 </i>
    <i name="e_0_energy">   -733.05542030 </i>
   </energy>
  </scstep>
  <scstep>
   <time name="dav">   56.72   56.85</time>
   <time name="total">   57.86   58.02</time>
   <dipole>
    <v name="dipole">      0.00000000       0.00000000      -0.62762661 </v>
    <i name="Tr[quadrupol]">  -9924.99115126 </i>
    <i name="Echarged">      0.00000000 </i>
    <i name="Edipol_quadrupol">      0.00000000 </i>
    <i name="Eion">      0.00000000 </i>
   </dipole>
   <energy>
    <i name="e_fr_energy">   -717.86319599 </i>
    <i name="e_wo_entrp">   -717.85517562 </i>
    <i name="e_0_energy">   -717.85918581 </i>
   </energy>
  </scstep>
  <scstep>
   <time name="dav">   55.74   55.86</time>
   <time name="total">   56.89   57.02</time>
   <dipole>
    <v name="dipole">      0.00000000       0.00000000      -0.78904180 </v>
    <i name="Tr[quadrupol]">  -9930.61902845 </i>
    <i name="Echarged">      0.00000000 </i>
    <i name="Edipol_quadrupol">      0.00000000 </i>
    <i name="Eion">      0.00000000 </i>
   </dipole>
   <energy>
    <i name="e_fr_energy">   -714.90478529 </i>
    <i name="e_wo_entrp">   -714.85553330 </i>
    <i name="e_0_energy">   -714.88015929 </i>
   </energy>
  </scstep>
  <scstep>
   <time name="dav">   55.66   55.71</time>
   <time name="total">   56.81   56.88</time>
   <dipole>
    <v name="dipole">      0.00000000       0.00000000      -1.10200753 </v>
    <i name="Tr[quadrupol]">  -9937.75739951 </i>
    <i name="Echarged">      0.00000000 </i>
    <i name="Edipol_quadrupol">      0.00000000 </i>
    <i name="Eion">      0.00000000 </i>
   </dipole>
   <energy>
    <i name="e_fr_energy">   -720.07845231 </i>
    <i name="e_wo_entrp">   -720.04036450 </i>
    <i name="e_0_energy">   -720.05940841 </i>
   </energy>
  </scstep>
  <scstep>
   <time name="dav">   53.94   53.96</time>
   <time name="total">   55.09   55.12</time>
   <dipole>
    <v name="dipole">      0.00000000       0.00000000      -0.10046202 </v>
    <i name="Tr[quadrupol]">  -9944.78151748 </i>
    <i name="Echarged">      0.00000000 </i>
    <i name="Edipol_quadrupol">      0.00000000 </i>
    <i name="Eion">      0.00000000 </i>
   </dipole>
   <energy>
    <i name="e_fr_energy">   -739.84335415 </i>
    <i name="e_wo_entrp">   -739.81210820 </i>
    <i name="e_0_energy">   -739.82773118 </i>
   </energy>
  </scstep>
  <scstep>
   <time name="dav">   52.52   52.54</time>
   <time name="total">   53.67   53.71</time>
   <dipole>
    <v name="dipole">      0.00000000       0.00000000      -1.22256903 </v>
    <i name="Tr[quadrupol]">  -9954.80963054 </i>
    <i name="Echarged">      0.00000000 </i>
    <i name="Edipol_quadrupol">      0.00000000 </i>
    <i name="Eion">      0.00000000 </i>
   </dipole>
   <energy>
    <i name="e_fr_energy">   -759.25395758 </i>
    <i name="e_wo_entrp">   -759.20810749 </i>
    <i name="e_0_energy">   -759.23103253 </i>
   </energy>
  </scstep>
  <scstep>
   <time name="dav">   54.72   54.87</time>
   <time name="total">   55.87   56.03</time>
   <dipole>
    <v name="dipole">      0.00000000       0.00000000       0.25307838 </v>
    <i name="Tr[quadrupol]">  -9956.27865807 </i>
    <i name="Echarged">      0.00000000 </i>
    <i name="Edipol_quadrupol">      0.00000000 </i>
    <i name="Eion">      0.00000000 </i>
   </dipole>
   <energy>
    <i name="e_fr_energy">   -769.92417926 </i>
    <i name="e_wo_entrp">   -769.88990703 </i>
    <i name="e_0_energy">   -769.90704315 </i>
   </energy>
  </scstep>
  <scstep>
   <time name="dav">   53.44   53.54</time>
   <time name="total">   54.59   54.71</time>
   <dipole>
    <v name="dipole">      0.00000000       0.00000000      -0.67941245 </v>
    <i name="Tr[quadrupol]">  -9957.67226420 </i>
    <i name="Echarged">      0.00000000 </i>
    <i name="Edipol_quadrupol">      0.00000000 </i>
    <i name="Eion">      0.00000000 </i>
   </dipole>
   <energy>
    <i name="e_fr_energy">   -784.37811706 </i>
    <i name="e_wo_entrp">   -784.37501079 </i>
    <i name="e_0_energy">   -784.37656393 </i>
   </energy>
  </scstep>
  <scstep>
   <time name="dav">   51.47   51.49</time>
   <time name="total">   52.62   52.66</time>
   <dipole>
    <v name="dipole">      0.00000000       0.00000000      -1.11015491 </v>
    <i name="Tr[quadrupol]">  -9958.13938514 </i>
    <i name="Echarged">      0.00000000 </i>
    <i name="Edipol_quadrupol">      0.00000000 </i>
    <i name="Eion">      0.00000000 </i>
   </dipole>
   <energy>
    <i name="e_fr_energy">   -798.25295821 </i>
    <i name="e_wo_entrp">   -798.19043631 </i>
    <i name="e_0_energy">   -798.22169726 </i>
   </energy>
  </scstep>
  <scstep>
   <time name="dav">   53.71   53.74</time>
   <time name="total">   54.86   54.90</time>
   <dipole>
    <v name="dipole">      0.00000000       0.00000000      -0.42765811 </v>
    <i name="Tr[quadrupol]">  -9963.83966152 </i>
    <i name="Echarged">      0.00000000 </i>
    <i name="Edipol_quadrupol">      0.00000000 </i>
    <i name="Eion">      0.00000000 </i>
   </dipole>
   <energy>
    <i name="e_fr_energy">   -800.72912937 </i>
    <i name="e_wo_entrp">   -800.72912937 </i>
    <i name="e_0_energy">   -800.72912937 </i>
   </energy>
  </scstep>
  <scstep>
   <time name="dav">   52.05   52.32</time>
   <time name="total">   53.19   53.48</time>
   <dipole>
    <v name="dipole">      0.00000000       0.00000000      -0.67423132 </v>
    <i name="Tr[quadrupol]">  -9964.16786534 </i>
    <i name="Echarged">      0.00000000 </i>
    <i name="Edipol_quadrupol">      0.00000000 </i>
    <i name="Eion">      0.00000000 </i>
   </dipole>
   <energy>
    <i name="e_fr_energy">   -804.22789839 </i>
    <i name="e_wo_entrp">   -804.22789745 </i>
    <i name="e_0_energy">   -804.22789792 </i>
   </energy>
  </scstep>
  <scstep>
   <time name="dav">   54.54   54.68</time>
   <time name="total">   55.70   55.87</time>
   <dipole>
    <v name="dipole">      0.00000000       0.00000000      -0.81021398 </v>
    <i name="Tr[quadrupol]">  -9963.43348065 </i>
    <i name="Echarged">      0.00000000 </i>
    <i name="Edipol_quadrupol">      0.00000000 </i>
    <i name="Eion">      0.00000000 </i>
   </dipole>
   <energy>
    <i name="e_fr_energy">   -805.60545903 </i>
    <i name="e_wo_entrp">   -805.60512507 </i>
    <i name="e_0_energy">   -805.60529205 </i>
   </energy>
  </scstep>
  <scstep>
   <time name="dav">   51.54   51.57</time>
   <time name="total">   52.69   52.73</time>
   <dipole>
    <v name="dipole">      0.00000000       0.00000000      -0.94553572 </v>
    <i name="Tr[quadrupol]">  -9960.26206674 </i>
    <i name="Echarged">      0.00000000 </i>
    <i name="Edipol_quadrupol">      0.00000000 </i>
    <i name="Eion">      0.00000000 </i>
   </dipole>
   <energy>
    <i name="e_fr_energy">   -807.23599430 </i>
    <i name="e_wo_entrp">   -807.22373233 </i>
    <i name="e_0_energy">   -807.22986332 </i>
   </energy>
  </scstep>
  <scstep>
   <time name="dav">   53.05   53.16</time>
   <time name="total">   54.20   54.33</time>
   <dipole>
    <v name="dipole">      0.00000000       0.00000000      -0.98501936 </v>
    <i name="Tr[quadrupol]">  -9958.10688999 </i>
    <i name="Echarged">      0.00000000 </i>
    <i name="Edipol_quadrupol">      0.00000000 </i>
    <i name="Eion">      0.00000000 </i>
   </dipole>
   <energy>
    <i name="e_fr_energy">   -808.12237593 </i>
    <i name="e_wo_entrp">   -808.11026783 </i>
    <i name="e_0_energy">   -808.11632188 </i>
   </energy>
  </scstep>
  <scstep>
   <time name="dav">   49.99   50.01</time>
   <time name="total">   51.13   51.17</time>
   <dipole>
    <v name="dipole">      0.00000000       0.00000000      -1.02521716 </v>
    <i name="Tr[quadrupol]">  -9955.77183553 </i>
    <i name="Echarged">      0.00000000 </i>
    <i name="Edipol_quadrupol">      0.00000000 </i>
    <i name="Eion">      0.00000000 </i>
   </dipole>
   <energy>
    <i name="e_fr_energy">   -808.98487095 </i>
    <i name="e_wo_entrp">   -808.97312036 </i>
    <i name="e_0_energy">   -808.97899565 </i>
   </energy>
  </scstep>
  <scstep>
   <time name="dav">   51.39   51.90</time>
   <time name="total">   52.54   53.08</time>
   <dipole>
    <v name="dipole">      0.00000000       0.00000000      -0.94487275 </v>
    <i name="Tr[quadrupol]">  -9953.76681095 </i>
    <i name="Echarged">      0.00000000 </i>
    <i name="Edipol_quadrupol">      0.00000000 </i>
    <i name="Eion">      0.00000000 </i>
   </dipole>
   <energy>
    <i name="e_fr_energy">   -809.68061875 </i>
    <i name="e_wo_entrp">   -809.67574016 </i>
    <i name="e_0_energy">   -809.67817946 </i>
   </energy>
  </scstep>
  <scstep>
   <time name="dav">   50.00   50.21</time>
   <time name="total">   51.15   51.37</time>
   <dipole>
    <v name="dipole">      0.00000000       0.00000000      -1.07790523 </v>
    <i name="Tr[quadrupol]">  -9950.22008519 </i>
    <i name="Echarged">      0.00000000 </i>
    <i name="Edipol_quadrupol">      0.00000000 </i>
    <i name="Eion">      0.00000000 </i>
   </dipole>
   <energy>
    <i name="e_fr_energy">   -810.14804284 </i>
    <i name="e_wo_entrp">   -810.13682549 </i>
    <i name="e_0_energy">   -810.14243416 </i>
   </energy>
  </scstep>
  <scstep>
   <time name="dav">   50.51   50.64</time>
   <time name="total">   51.66   51.81</time>
   <dipole>
    <v name="dipole">      0.00000000       0.00000000      -1.06093811 </v>
    <i name="Tr[quadrupol]">  -9948.66204362 </i>
    <i name="Echarged">      0.00000000 </i>
    <i name="Edipol_quadrupol">      0.00000000 </i>
    <i name="Eion">      0.00000000 </i>
   </dipole>
   <energy>
    <i name="e_fr_energy">   -810.42813288 </i>
    <i name="e_wo_entrp">   -810.41775504 </i>
    <i name="e_0_energy">   -810.42294396 </i>
   </energy>
  </scstep>
  <scstep>
   <time name="dav">   54.29   54.47</time>
   <time name="total">   55.46   55.65</time>
   <dipole>
    <v name="dipole">      0.00000000       0.00000000      -0.94543422 </v>
    <i name="Tr[quadrupol]">  -9946.79882961 </i>
    <i name="Echarged">      0.00000000 </i>
    <i name="Edipol_quadrupol">      0.00000000 </i>
    <i name="Eion">      0.00000000 </i>
   </dipole>
   <energy>
    <i name="e_fr_energy">   -811.23155344 </i>
    <i name="e_wo_entrp">   -811.21847920 </i>
    <i name="e_0_energy">   -811.22501632 </i>
   </energy>
  </scstep>
  <scstep>
   <time name="dav">   54.21   54.28</time>
   <time name="total">   55.36   55.46</time>
   <dipole>
    <v name="dipole">      0.00000000       0.00000000      -0.87799136 </v>
    <i name="Tr[quadrupol]">  -9945.98221562 </i>
    <i name="Echarged">      0.00000000 </i>
    <i name="Edipol_quadrupol">      0.00000000 </i>
    <i name="Eion">      0.00000000 </i>
   </dipole>
   <energy>
    <i name="e_fr_energy">   -811.55820145 </i>
    <i name="e_wo_entrp">   -811.54183809 </i>
    <i name="e_0_energy">   -811.55001977 </i>
   </energy>
  </scstep>
  <scstep>
   <time name="dav">   55.15   55.17</time>
   <time name="total">   56.30   56.33</time>
   <dipole>
    <v name="dipole">      0.00000000       0.00000000      -0.87341684 </v>
    <i name="Tr[quadrupol]">  -9945.71928463 </i>
    <i name="Echarged">      0.00000000 </i>
    <i name="Edipol_quadrupol">      0.00000000 </i>
    <i name="Eion">      0.00000000 </i>
   </dipole>
   <energy>
    <i name="e_fr_energy">   -811.56888003 </i>
    <i name="e_wo_entrp">   -811.55434580 </i>
    <i name="e_0_energy">   -811.56161291 </i>
   </energy>
  </scstep>
  <scstep>
   <time name="dav">   57.37   57.73</time>
   <time name="total">   58.52   58.90</time>
   <dipole>
    <v name="dipole">      0.00000000       0.00000000      -0.85678940 </v>
    <i name="Tr[quadrupol]">  -9945.52434304 </i>
    <i name="Echarged">      0.00000000 </i>
    <i name="Edipol_quadrupol">      0.00000000 </i>
    <i name="Eion">      0.00000000 </i>
   </dipole>
   <energy>
    <i name="e_fr_energy">   -811.58047480 </i>
    <i name="e_wo_entrp">   -811.56631486 </i>
    <i name="e_0_energy">   -811.57339483 </i>
   </energy>
  </scstep>
  <scstep>
   <time name="dav">   64.79   65.06</time>
   <time name="total">   65.94   66.22</time>
   <dipole>
    <v name="dipole">      0.00000000       0.00000000      -0.88784444 </v>
    <i name="Tr[quadrupol]">  -9945.22909472 </i>
    <i name="Echarged">      0.00000000 </i>
    <i name="Edipol_quadrupol">      0.00000000 </i>
    <i name="Eion">      0.00000000 </i>
   </dipole>
   <energy>
    <i name="e_fr_energy">   -811.58268225 </i>
    <i name="e_wo_entrp">   -811.57061208 </i>
    <i name="e_0_energy">   -811.57664717 </i>
   </energy>
  </scstep>
  <scstep>
   <time name="dav">   56.39   56.41</time>
   <time name="total">   57.54   57.58</time>
   <dipole>
    <v name="dipole">      0.00000000       0.00000000      -0.91698746 </v>
    <i name="Tr[quadrupol]">  -9945.04751566 </i>
    <i name="Echarged">      0.00000000 </i>
    <i name="Edipol_quadrupol">      0.00000000 </i>
    <i name="Eion">      0.00000000 </i>
   </dipole>
   <energy>
    <i name="e_fr_energy">   -811.58361055 </i>
    <i name="e_wo_entrp">   -811.57055754 </i>
    <i name="e_0_energy">   -811.57708404 </i>
   </energy>
  </scstep>
  <scstep>
   <time name="dav">   51.93   52.11</time>
   <time name="total">   53.08   53.26</time>
   <dipole>
    <v name="dipole">      0.00000000       0.00000000      -0.91272403 </v>
    <i name="Tr[quadrupol]">  -9945.05447897 </i>
    <i name="Echarged">      0.00000000 </i>
    <i name="Edipol_quadrupol">      0.00000000 </i>
    <i name="Eion">      0.00000000 </i>
   </dipole>
   <energy>
    <i name="e_fr_energy">   -811.58483975 </i>
    <i name="e_wo_entrp">   -811.57197284 </i>
    <i name="e_0_energy">   -811.57840629 </i>
   </energy>
  </scstep>
  <scstep>
   <time name="dav">   54.34   54.36</time>
   <time name="total">   55.49   55.53</time>
   <dipole>
    <v name="dipole">      0.00000000       0.00000000      -0.90610166 </v>
    <i name="Tr[quadrupol]">  -9945.02455203 </i>
    <i name="Echarged">      0.00000000 </i>
    <i name="Edipol_quadrupol">      0.00000000 </i>
    <i name="Eion">      0.00000000 </i>
   </dipole>
   <energy>
    <i name="e_fr_energy">   -811.58562220 </i>
    <i name="e_wo_entrp">   -811.57309834 </i>
    <i name="e_0_energy">   -811.57936027 </i>
   </energy>
  </scstep>
  <scstep>
   <time name="dav">   52.00   52.08</time>
   <time name="total">   53.15   53.24</time>
   <dipole>
    <v name="dipole">      0.00000000       0.00000000      -0.90420358 </v>
    <i name="Tr[quadrupol]">  -9944.95388840 </i>
    <i name="Echarged">      0.00000000 </i>
    <i name="Edipol_quadrupol">      0.00000000 </i>
    <i name="Eion">      0.00000000 </i>
   </dipole>
   <energy>
    <i name="e_fr_energy">   -811.58615632 </i>
    <i name="e_wo_entrp">   -811.57355315 </i>
    <i name="e_0_energy">   -811.57985474 </i>
   </energy>
  </scstep>
  <scstep>
   <time name="dav">   52.11   52.19</time>
   <time name="total">   53.26   53.36</time>
   <dipole>
    <v name="dipole">      0.00000000       0.00000000      -0.90365671 </v>
    <i name="Tr[quadrupol]">  -9944.92492486 </i>
    <i name="Echarged">      0.00000000 </i>
    <i name="Edipol_quadrupol">      0.00000000 </i>
    <i name="Eion">      0.00000000 </i>
   </dipole>
   <energy>
    <i name="e_fr_energy">   -811.58645556 </i>
    <i name="e_wo_entrp">   -811.57370941 </i>
    <i name="e_0_energy">   -811.58008248 </i>
   </energy>
  </scstep>
  <scstep>
   <time name="dav">   50.19   50.38</time>
   <time name="total">   51.34   51.55</time>
   <dipole>
    <v name="dipole">      0.00000000       0.00000000      -0.90211213 </v>
    <i name="Tr[quadrupol]">  -9944.91614463 </i>
    <i name="Echarged">      0.00000000 </i>
    <i name="Edipol_quadrupol">      0.00000000 </i>
    <i name="Eion">      0.00000000 </i>
   </dipole>
   <energy>
    <i name="e_fr_energy">   -811.58662282 </i>
    <i name="e_wo_entrp">   -811.57397466 </i>
    <i name="e_0_energy">   -811.58029874 </i>
   </energy>
  </scstep>
  <scstep>
   <time name="dav">   44.44   44.51</time>
   <time name="total">   45.60   45.69</time>
   <dipole>
    <v name="dipole">      0.00000000       0.00000000      -0.89915943 </v>
    <i name="Tr[quadrupol]">  -9944.90704352 </i>
    <i name="Echarged">      0.00000000 </i>
    <i name="Edipol_quadrupol">      0.00000000 </i>
    <i name="Eion">      0.00000000 </i>
   </dipole>
   <energy>
    <i name="e_fr_energy">   -811.58665319 </i>
    <i name="e_wo_entrp">   -811.57420840 </i>
    <i name="e_0_energy">   -811.58043079 </i>
   </energy>
  </scstep>
  <scstep>
   <time name="dav">   38.09   38.15</time>
   <time name="total">   39.24   39.31</time>
   <dipole>
    <v name="dipole">      0.00000000       0.00000000      -0.89584210 </v>
    <i name="Tr[quadrupol]">  -9944.88465139 </i>
    <i name="Echarged">      0.00000000 </i>
    <i name="Edipol_quadrupol">      0.00000000 </i>
    <i name="Eion">      0.00000000 </i>
   </dipole>
   <energy>
    <i name="e_fr_energy">   -811.58683012 </i>
    <i name="e_wo_entrp">   -811.57447712 </i>
    <i name="e_0_energy">   -811.58065362 </i>
   </energy>
  </scstep>
  <scstep>
   <time name="dav">   38.90   38.96</time>
   <time name="total">   40.06   40.14</time>
   <dipole>
    <v name="dipole">      0.00000000       0.00000000      -0.89711581 </v>
    <i name="Tr[quadrupol]">  -9944.86368910 </i>
    <i name="Echarged">      0.00000000 </i>
    <i name="Edipol_quadrupol">      0.00000000 </i>
    <i name="Eion">      0.00000000 </i>
   </dipole>
   <energy>
    <i name="e_fr_energy">   -811.58690430 </i>
    <i name="e_wo_entrp">   -811.57441825 </i>
    <i name="e_0_energy">   -811.58066127 </i>
   </energy>
  </scstep>
  <scstep>
   <time name="dav">   37.03   37.06</time>
   <time name="total">   38.18   38.23</time>
   <dipole>
    <v name="dipole">      0.00000000       0.00000000      -0.89803335 </v>
    <i name="Tr[quadrupol]">  -9944.84624161 </i>
    <i name="Echarged">      0.00000000 </i>
    <i name="Edipol_quadrupol">      0.00000000 </i>
    <i name="Eion">      0.00000000 </i>
   </dipole>
   <energy>
    <i name="e_fr_energy">   -811.58698744 </i>
    <i name="e_wo_entrp">   -811.57447412 </i>
    <i name="e_0_energy">   -811.58073078 </i>
   </energy>
  </scstep>
  <scstep>
   <time name="dav">   38.16   38.18</time>
   <time name="total">   39.32   39.35</time>
   <dipole>
    <v name="dipole">      0.00000000       0.00000000      -0.89783087 </v>
    <i name="Tr[quadrupol]">  -9944.83799159 </i>
    <i name="Echarged">      0.00000000 </i>
    <i name="Edipol_quadrupol">      0.00000000 </i>
    <i name="Eion">      0.00000000 </i>
   </dipole>
   <energy>
    <i name="e_fr_energy">   -811.58702377 </i>
    <i name="e_wo_entrp">   -811.57456140 </i>
    <i name="e_0_energy">   -811.58079259 </i>
   </energy>
  </scstep>
  <scstep>
   <time name="dav">   35.15   35.33</time>
   <time name="total">   36.32   36.50</time>
   <dipole>
    <v name="dipole">      0.00000000       0.00000000      -0.89778420 </v>
    <i name="Tr[quadrupol]">  -9944.95259638 </i>
    <i name="Echarged">      0.00000000 </i>
    <i name="Edipol_quadrupol">      0.00000000 </i>
    <i name="Eion">      0.00000000 </i>
   </dipole>
   <energy>
    <i name="e_fr_energy">   -811.58700624 </i>
    <i name="e_wo_entrp">   -811.57456925 </i>
    <i name="e_0_energy">   -811.58078774 </i>
   </energy>
  </scstep>
  <scstep>
   <time name="dav">   36.79   36.92</time>
   <time name="total">   37.95   38.10</time>
   <dipole>
    <v name="dipole">      0.00000000       0.00000000      -0.89854448 </v>
    <i name="Tr[quadrupol]">  -9945.06672975 </i>
    <i name="Echarged">      0.00000000 </i>
    <i name="Edipol_quadrupol">      0.00000000 </i>
    <i name="Eion">      0.00000000 </i>
   </dipole>
   <energy>
    <i name="e_fr_energy">   -811.58698396 </i>
    <i name="e_wo_entrp">   -811.57453445 </i>
    <i name="e_0_energy">   -811.58075920 </i>
   </energy>
  </scstep>
  <scstep>
   <time name="dav">   36.46   36.52</time>
   <time name="total">   37.62   37.69</time>
   <dipole>
    <v name="dipole">      0.00000000       0.00000000      -0.89884645 </v>
    <i name="Tr[quadrupol]">  -9945.06023776 </i>
    <i name="Echarged">      0.00000000 </i>
    <i name="Edipol_quadrupol">      0.00000000 </i>
    <i name="Eion">      0.00000000 </i>
   </dipole>
   <energy>
    <i name="e_fr_energy">   -811.58701008 </i>
    <i name="e_wo_entrp">   -811.57455833 </i>
    <i name="e_0_energy">   -811.58078421 </i>
   </energy>
  </scstep>
  <scstep>
   <time name="dav">   34.80   34.85</time>
   <time name="total">   35.95   36.03</time>
   <dipole>
    <v name="dipole">      0.00000000       0.00000000      -0.89937547 </v>
    <i name="Tr[quadrupol]">  -9945.18274219 </i>
    <i name="Echarged">      0.00000000 </i>
    <i name="Edipol_quadrupol">      0.00000000 </i>
    <i name="Eion">      0.00000000 </i>
   </dipole>
   <energy>
    <i name="e_fr_energy">   -811.58695072 </i>
    <i name="e_wo_entrp">   -811.57449452 </i>
    <i name="e_0_energy">   -811.58072262 </i>
   </energy>
  </scstep>
  <scstep>
   <time name="dav">   34.99   35.03</time>
   <time name="total">   35.27   35.32</time>
   <dipole>
    <v name="dipole">      0.00000000       0.00000000      -0.89899137 </v>
    <i name="Tr[quadrupol]">  -9945.18091093 </i>
    <i name="Echarged">      0.00000000 </i>
    <i name="Edipol_quadrupol">      0.00000000 </i>
    <i name="Eion">      0.00000000 </i>
   </dipole>
   <energy>
    <i name="alphaZ">   2997.32705754 </i>
    <i name="ewald"> 195983.93955978 </i>
    <i name="hartreedc">-267503.27387956 </i>
    <i name="XCdc">   3674.55389067 </i>
    <i name="pawpsdc">  96693.05424984 </i>
    <i name="pawaedc"> -96173.39552633 </i>
    <i name="eentropy">     -0.01243949 </i>
    <i name="bandstr"> -11232.07944732 </i>
    <i name="atom">  74748.29957676 </i>
    <i name="e_fr_energy">   -811.58695811 </i>
    <i name="e_wo_entrp">   -811.57451862 </i>
    <i name="e_0_energy">   -811.58073836 </i>
   </energy>
  </scstep>
  <structure>
   <crystal>
    <varray name="basis" >
     <v>       7.81059980       0.00000000       0.00000000 </v>
     <v>       0.00000000       7.81059980       0.00000000 </v>
     <v>       0.00000000       0.00000000      29.57379913 </v>
    </varray>
    <i name="volume">   1804.16349501 </i>
    <varray name="rec_basis" >
     <v>       0.12803114       0.00000000       0.00000000 </v>
     <v>       0.00000000       0.12803114       0.00000000 </v>
     <v>       0.00000000       0.00000000       0.03381371 </v>
    </varray>
   </crystal>
   <varray name="positions" >
    <v>       0.25000000       0.25000000       0.05776000 </v>
    <v>       0.25000000       0.74999998       0.05776000 </v>
    <v>       0.74999998       0.25000000       0.05776000 </v>
    <v>       0.74999998       0.74999998       0.05776000 </v>
    <v>       0.25000000       0.25000000       0.19598000 </v>
    <v>       0.25000000       0.74999998       0.19598000 </v>
    <v>       0.74999998       0.25000000       0.19598000 </v>
    <v>       0.74999998       0.74999998       0.19598000 </v>
    <v>       0.25027999       0.24997001       0.33063001 </v>
    <v>       0.25034002       0.75006000       0.33076000 </v>
    <v>       0.75037001       0.24990000       0.33068999 </v>
    <v>       0.75031000       0.75015005       0.33067000 </v>
    <v>       0.25081000       0.24991000       0.46384001 </v>
    <v>       0.25085000       0.75010005       0.46373001 </v>
    <v>       0.75086000       0.24998001       0.46387000 </v>
    <v>       0.75084003       0.75006995       0.46382001 </v>
    <v>       0.25106999       0.25041000       0.59342002 </v>
    <v>       0.25154000       0.74953997       0.59352998 </v>
    <v>       0.75225004       0.24947999       0.59368000 </v>
    <v>       0.75159003       0.75064998       0.59340003 </v>
    <v>       0.00000000       0.00000000       0.13085000 </v>
    <v>       0.00000000       0.50000000       0.13085000 </v>
    <v>       0.50000000       0.00000000       0.13085000 </v>
    <v>       0.50000000       0.50000000       0.13085000 </v>
    <v>       0.00000000       0.00000000       0.26447001 </v>
    <v>       0.00000000       0.50000000       0.26447001 </v>
    <v>       0.50000000       0.00000000       0.26447001 </v>
    <v>       0.50000000       0.50000000       0.26447001 </v>
    <v>       0.00048000       0.99993999       0.39877001 </v>
    <v>       0.00042000       0.49998001       0.39886001 </v>
    <v>       0.50054997       0.00000000       0.39886001 </v>
    <v>       0.50066001       0.49990000       0.39875998 </v>
    <v>       0.00118000       0.99998999       0.53474998 </v>
    <v>       0.00141000       0.50010003       0.53478997 </v>
    <v>       0.50121999       0.99990000       0.53489000 </v>
    <v>       0.50130998       0.49998001       0.53473999 </v>
    <v>       0.99947002       0.99978999       0.99947998 </v>
    <v>       0.99948004       0.49979002       0.99949004 </v>
    <v>       0.49946999       0.99978999       0.99949004 </v>
    <v>       0.49948001       0.49979002       0.99947998 </v>
    <v>       0.00000000       0.00000000       0.06211000 </v>
    <v>       0.00000000       0.50000000       0.06211000 </v>
    <v>       0.50000000       0.00000000       0.06211000 </v>
    <v>       0.50000000       0.50000000       0.06211000 </v>
    <v>       0.00000000       0.25000000       0.12976999 </v>
    <v>       0.00000000       0.74999998       0.12976999 </v>
    <v>       0.25000000       0.00000000       0.12976999 </v>
    <v>       0.25000000       0.50000000       0.12976999 </v>
    <v>       0.50000000       0.25000000       0.12976999 </v>
    <v>       0.50000000       0.74999998       0.12976999 </v>
    <v>       0.74999998       0.00000000       0.12976999 </v>
    <v>       0.74999998       0.50000000       0.12976999 </v>
    <v>       0.00000000       0.00000000       0.19662000 </v>
    <v>       0.00000000       0.50000000       0.19662000 </v>
    <v>       0.50000000       0.00000000       0.19662000 </v>
    <v>       0.50000000       0.50000000       0.19662000 </v>
    <v>       0.00000000       0.25000000       0.26390001 </v>
    <v>       0.00000000       0.74999998       0.26390001 </v>
    <v>       0.25000000       0.00000000       0.26390001 </v>
    <v>       0.25000000       0.50000000       0.26390001 </v>
    <v>       0.50000000       0.25000000       0.26390001 </v>
    <v>       0.50000000       0.74999998       0.26390001 </v>
    <v>       0.74999998       0.00000000       0.26390001 </v>
    <v>       0.74999998       0.50000000       0.26390001 </v>
    <v>       0.00000000       0.00015000       0.33087000 </v>
    <v>       0.00074000       0.49996999       0.33087999 </v>
    <v>       0.50073999       0.99977998       0.33087999 </v>
    <v>       0.50010998       0.50032002       0.33092001 </v>
    <v>       0.00211000       0.25011000       0.39809001 </v>
    <v>       0.99937998       0.75015005       0.39800998 </v>
    <v>       0.25061000       0.99866996       0.39794000 </v>
    <v>       0.25070000       0.50164002       0.39834999 </v>
    <v>       0.49935000       0.25016999       0.39795000 </v>
    <v>       0.50208999       0.75006000       0.39823000 </v>
    <v>       0.75068997       0.00148000       0.39816002 </v>
    <v>       0.75066000       0.49882998       0.39783000 </v>
    <v>       0.00126000       0.99988004       0.46514002 </v>
    <v>       0.99927003       0.50028004       0.46507998 </v>
    <v>       0.50054002       0.00084000       0.46510000 </v>
    <v>       0.50224002       0.49943001       0.46522999 </v>
    <v>       0.99715000       0.25012001       0.53297000 </v>
    <v>       0.00476000       0.75011000       0.53305000 </v>
    <v>       0.25105000       0.00385000       0.53315997 </v>
    <v>       0.25119000       0.49612998       0.53258003 </v>
    <v>       0.50508998       0.25009998       0.53333997 </v>
    <v>       0.49746001       0.74996000       0.53283001 </v>
    <v>       0.75098002       0.99607998       0.53289999 </v>
    <v>       0.75123002       0.50393998       0.53351997 </v>
    <v>       0.00019000       0.00033000       0.59971998 </v>
    <v>       0.00325000       0.50006996       0.59969005 </v>
    <v>       0.50151999       0.99892998       0.59981001 </v>
    <v>       0.49858001       0.50145000       0.59991998 </v>
    <v>       0.00033000       0.25015000       0.99557000 </v>
    <v>       0.00034000       0.75015005       0.99557000 </v>
    <v>       0.25036999       0.00013000       0.99557000 </v>
    <v>       0.25036999       0.50013001       0.99557000 </v>
    <v>       0.50033999       0.25015000       0.99557000 </v>
    <v>       0.50032998       0.75015005       0.99557000 </v>
    <v>       0.75037001       0.00013000       0.99557000 </v>
    <v>       0.75037001       0.50013001       0.99557000 </v>
    <v>       0.49358999       0.48504000       0.66756998 </v>
    <v>       0.40493000       0.37846000       0.66483999 </v>
    <v>       0.63058001       0.46137000       0.66866006 </v>
    <v>       0.44534001       0.61532996       0.66903994 </v>
   </varray>
  </structure>
  <varray name="forces" >
   <v>      -0.00656297      -0.00256611      -0.06099995 </v>
   <v>      -0.00656983      -0.00270285      -0.06095799 </v>
   <v>      -0.00663634      -0.00256453      -0.06098849 </v>
   <v>      -0.00663171      -0.00270594      -0.06093323 </v>
   <v>      -0.00094832       0.00054996      -0.08085531 </v>
   <v>      -0.00023659      -0.00053399      -0.07813430 </v>
   <v>       0.00101113      -0.00090360      -0.07983920 </v>
   <v>       0.00029752       0.00091703      -0.07935846 </v>
   <v>      -0.00325473       0.00111566      -0.07127974 </v>
   <v>      -0.00453455      -0.00266140      -0.09027643 </v>
   <v>      -0.00081937       0.00382158      -0.07962326 </v>
   <v>       0.00048529      -0.00575987      -0.07902474 </v>
   <v>      -0.00487362      -0.00480171      -0.08806939 </v>
   <v>      -0.00418825       0.00385343      -0.06860141 </v>
   <v>       0.00384429      -0.00690009      -0.08535729 </v>
   <v>       0.00228448       0.00474560      -0.08268256 </v>
   <v>      -0.15897334      -0.14744512      -0.25195971 </v>
   <v>      -0.14125338       0.12102833      -0.19433699 </v>
   <v>       0.09066899      -0.13572503      -0.19976402 </v>
   <v>       0.10241047       0.11814011      -0.13740705 </v>
   <v>      -0.00032235      -0.00017293      -0.20252116 </v>
   <v>      -0.00025751      -0.00003760      -0.20113008 </v>
   <v>      -0.00023364      -0.00022175      -0.20183934 </v>
   <v>      -0.00030274      -0.00001495      -0.20532654 </v>
   <v>      -0.00401845      -0.00235409      -0.21211837 </v>
   <v>       0.01138419       0.00277104      -0.19091349 </v>
   <v>       0.01177376      -0.00981596      -0.19806941 </v>
   <v>      -0.00363249       0.00993514      -0.21527568 </v>
   <v>       0.00737556       0.00580609      -0.18474893 </v>
   <v>      -0.00698391      -0.00511005      -0.22664743 </v>
   <v>      -0.00416788       0.00655255      -0.21025409 </v>
   <v>       0.00854087      -0.00841017      -0.22044327 </v>
   <v>       0.01574806      -0.00038673      -0.21201594 </v>
   <v>      -0.00062978       0.00138789      -0.25278812 </v>
   <v>      -0.01231949      -0.00842485      -0.24144844 </v>
   <v>       0.00361201      -0.04177881      -0.78446501 </v>
   <v>      -0.00918492      -0.00361912      -0.23097486 </v>
   <v>      -0.00920401      -0.00389486      -0.23883418 </v>
   <v>      -0.00932327      -0.00359135      -0.23892828 </v>
   <v>      -0.00937922      -0.00393913      -0.23458354 </v>
   <v>       0.00315822       0.00131959       0.19840670 </v>
   <v>       0.00325318       0.00133083       0.20153878 </v>
   <v>       0.00319387       0.00131266       0.20173001 </v>
   <v>       0.00324498       0.00134861       0.19975710 </v>
   <v>       0.00026620       0.00028847       0.05195318 </v>
   <v>       0.00023552      -0.00041752       0.05184328 </v>
   <v>       0.00040738       0.00015319       0.05195463 </v>
   <v>       0.00006243       0.00005008       0.05223805 </v>
   <v>       0.00022811      -0.00006596       0.05232800 </v>
   <v>       0.00026330      -0.00004886       0.05226533 </v>
   <v>      -0.00060601       0.00014524       0.05199654 </v>
   <v>      -0.00022476       0.00005441       0.05217685 </v>
   <v>       0.00159071       0.00035872       0.17995595 </v>
   <v>       0.00102207       0.00000767       0.17952356 </v>
   <v>       0.00082736       0.00069605       0.18084968 </v>
   <v>       0.00167015      -0.00026420       0.18612171 </v>
   <v>      -0.00128928      -0.00123544       0.04234821 </v>
   <v>      -0.00077070       0.00420885       0.04632748 </v>
   <v>       0.00897195       0.00297472       0.05403946 </v>
   <v>       0.01835564      -0.00326354       0.03917415 </v>
   <v>      -0.00131756       0.00677202       0.05366041 </v>
   <v>      -0.00187982      -0.00407471       0.04097502 </v>
   <v>       0.01052963      -0.00005326       0.03613688 </v>
   <v>       0.00338177      -0.00024285       0.05384929 </v>
   <v>       0.00519986       0.00004463       0.16912167 </v>
   <v>       0.00346273      -0.00012344       0.16490923 </v>
   <v>      -0.00813163       0.00182732       0.16768627 </v>
   <v>      -0.01054000      -0.00015340       0.16551735 </v>
   <v>       0.00678695      -0.00146345       0.06636245 </v>
   <v>      -0.00602295      -0.00228572       0.06553029 </v>
   <v>       0.00955445      -0.00353558       0.06664870 </v>
   <v>       0.00444003       0.00258088       0.06819153 </v>
   <v>      -0.00951706      -0.00074545       0.07045243 </v>
   <v>       0.00283238       0.00318666       0.06807210 </v>
   <v>      -0.00393039       0.00544477       0.06313925 </v>
   <v>      -0.00844425      -0.00640165       0.07241756 </v>
   <v>      -0.00011773       0.00331662       0.12803495 </v>
   <v>       0.01114384       0.00159105       0.17155974 </v>
   <v>      -0.01066515       0.00047258       0.16124046 </v>
   <v>      -0.00127039       0.00809532       0.16500945 </v>
   <v>      -0.01095970       0.00849006       0.07101175 </v>
   <v>       0.01957735      -0.01899086       0.06801031 </v>
   <v>       0.01743068       0.01295481       0.06767369 </v>
   <v>       0.03645062      -0.00938128       0.11766595 </v>
   <v>       0.01383542       0.04384814       0.12584023 </v>
   <v>      -0.01333297      -0.03223490       0.12461692 </v>
   <v>      -0.01123333      -0.00038331       0.07372912 </v>
   <v>      -0.07381582       0.00026276       0.13160555 </v>
   <v>      -0.00634918       0.00791375       0.15353915 </v>
   <v>      -0.03100847      -0.01188395       0.19431192 </v>
   <v>       0.00337106       0.00002097       0.15777557 </v>
   <v>       0.09086799       0.20397169      -1.82660072 </v>
   <v>       0.00443526       0.00280129       0.08503082 </v>
   <v>       0.00393810       0.00363086       0.08489738 </v>
   <v>       0.00841206       0.00211938       0.08484585 </v>
   <v>       0.00826286       0.00176873       0.08567562 </v>
   <v>       0.00397515       0.00284600       0.08590610 </v>
   <v>       0.00448551       0.00360761       0.08574123 </v>
   <v>       0.00921360       0.00168262       0.08475870 </v>
   <v>       0.00899446       0.00219616       0.08559876 </v>
   <v>      -0.08907877      -0.11695164       1.24640550 </v>
   <v>       0.10081861       0.05090776       0.55788860 </v>
   <v>      -0.04693588       0.02508750       0.38033031 </v>
   <v>       0.06529638      -0.08107189       0.42247368 </v>
  </varray>
  <varray name="stress" >
   <v>       7.23634381       0.03586629      -0.31638652 </v>
   <v>       0.03586630       7.25896797      -0.21132618 </v>
   <v>      -0.31638649      -0.21132621       2.66031145 </v>
  </varray>
  <energy>
   <i name="e_fr_energy">   -811.58695811 </i>
   <i name="e_wo_entrp">   -811.58073836 </i>
   <i name="e_0_energy">     -0.01243949 </i>
  </energy>
  <time name="totalsc"> 2411.86 2418.30</time>
 </calculation>
 <calculation>
  <scstep>
   <time name="dav">   46.62   46.66</time>
   <time name="total">   47.78   47.83</time>
   <dipole>
    <v name="dipole">      0.00000000       0.00000000      -0.89970704 </v>
    <i name="Tr[quadrupol]">  -9942.62498042 </i>
    <i name="Echarged">      0.00000000 </i>
    <i name="Edipol_quadrupol">      0.00000000 </i>
    <i name="Eion">      0.00000000 </i>
   </dipole>
   <energy>
    <i name="alphaZ">   3002.06532565 </i>
    <i name="ewald"> 196202.92175277 </i>
    <i name="hartreedc">-267721.74197696 </i>
    <i name="XCdc">   3674.46774678 </i>
    <i name="pawpsdc">  96693.09731139 </i>
    <i name="pawaedc"> -96173.43769497 </i>
    <i name="eentropy">     -0.00907024 </i>
    <i name="bandstr"> -11237.14496247 </i>
    <i name="atom">  74748.29957676 </i>
    <i name="e_fr_energy">   -811.48199130 </i>
    <i name="e_wo_entrp">   -811.47292106 </i>
    <i name="e_0_energy">   -811.47745618 </i>
   </energy>
  </scstep>
  <scstep>
   <time name="dav">   47.58   47.59</time>
   <time name="total">   48.72   48.74</time>
   <dipole>
    <v name="dipole">      0.00000000       0.00000000      -0.66967502 </v>
    <i name="Tr[quadrupol]">  -9943.13074966 </i>
    <i name="Echarged">      0.00000000 </i>
    <i name="Edipol_quadrupol">      0.00000000 </i>
    <i name="Eion">      0.00000000 </i>
   </dipole>
   <energy>
    <i name="e_fr_energy">   -811.79920447 </i>
    <i name="e_wo_entrp">   -811.79920445 </i>
    <i name="e_0_energy">   -811.79920446 </i>
   </energy>
  </scstep>
  <scstep>
   <time name="dav">   55.34   55.63</time>
   <time name="total">   56.48   56.80</time>
   <dipole>
    <v name="dipole">      0.00000000       0.00000000      -0.64743220 </v>
    <i name="Tr[quadrupol]">  -9943.20685713 </i>
    <i name="Echarged">      0.00000000 </i>
    <i name="Edipol_quadrupol">      0.00000000 </i>
    <i name="Eion">      0.00000000 </i>
   </dipole>
   <energy>
    <i name="e_fr_energy">   -811.84317867 </i>
    <i name="e_wo_entrp">   -811.84317856 </i>
    <i name="e_0_energy">   -811.84317861 </i>
   </energy>
  </scstep>
  <scstep>
   <time name="dav">   58.63   58.66</time>
   <time name="total">   59.77   59.81</time>
   <dipole>
    <v name="dipole">      0.00000000       0.00000000      -0.63564300 </v>
    <i name="Tr[quadrupol]">  -9943.43370417 </i>
    <i name="Echarged">      0.00000000 </i>
    <i name="Edipol_quadrupol">      0.00000000 </i>
    <i name="Eion">      0.00000000 </i>
   </dipole>
   <energy>
    <i name="e_fr_energy">   -811.83860368 </i>
    <i name="e_wo_entrp">   -811.83860362 </i>
    <i name="e_0_energy">   -811.83860365 </i>
   </energy>
  </scstep>
  <scstep>
   <time name="dav">   51.50   51.53</time>
   <time name="total">   52.65   52.69</time>
   <dipole>
    <v name="dipole">      0.00000000       0.00000000      -0.62207417 </v>
    <i name="Tr[quadrupol]">  -9943.60118281 </i>
    <i name="Echarged">      0.00000000 </i>
    <i name="Edipol_quadrupol">      0.00000000 </i>
    <i name="Eion">      0.00000000 </i>
   </dipole>
   <energy>
    <i name="e_fr_energy">   -811.83629367 </i>
    <i name="e_wo_entrp">   -811.83629357 </i>
    <i name="e_0_energy">   -811.83629362 </i>
   </energy>
  </scstep>
  <scstep>
   <time name="dav">   57.97   58.11</time>
   <time name="total">   59.11   59.26</time>
   <dipole>
    <v name="dipole">      0.00000000       0.00000000      -0.61428736 </v>
    <i name="Tr[quadrupol]">  -9943.71367683 </i>
    <i name="Echarged">      0.00000000 </i>
    <i name="Edipol_quadrupol">      0.00000000 </i>
    <i name="Eion">      0.00000000 </i>
   </dipole>
   <energy>
    <i name="e_fr_energy">   -811.83686408 </i>
    <i name="e_wo_entrp">   -811.83686400 </i>
    <i name="e_0_energy">   -811.83686404 </i>
   </energy>
  </scstep>
  <scstep>
   <time name="dav">   54.92   55.18</time>
   <time name="total">   56.06   56.35</time>
   <dipole>
    <v name="dipole">      0.00000000       0.00000000      -0.61302572 </v>
    <i name="Tr[quadrupol]">  -9943.80393493 </i>
    <i name="Echarged">      0.00000000 </i>
    <i name="Edipol_quadrupol">      0.00000000 </i>
    <i name="Eion">      0.00000000 </i>
   </dipole>
   <energy>
    <i name="e_fr_energy">   -811.83752639 </i>
    <i name="e_wo_entrp">   -811.83752632 </i>
    <i name="e_0_energy">   -811.83752636 </i>
   </energy>
  </scstep>
  <scstep>
   <time name="dav">   57.09   57.23</time>
   <time name="total">   58.32   58.47</time>
   <dipole>
    <v name="dipole">      0.00000000       0.00000000      -0.61230111 </v>
    <i name="Tr[quadrupol]">  -9943.86435668 </i>
    <i name="Echarged">      0.00000000 </i>
    <i name="Edipol_quadrupol">      0.00000000 </i>
    <i name="Eion">      0.00000000 </i>
   </dipole>
   <energy>
    <i name="e_fr_energy">   -811.83793181 </i>
    <i name="e_wo_entrp">   -811.83793175 </i>
    <i name="e_0_energy">   -811.83793178 </i>
   </energy>
  </scstep>
  <scstep>
   <time name="dav">   46.96   46.98</time>
   <time name="total">   48.10   48.14</time>
   <dipole>
    <v name="dipole">      0.00000000       0.00000000      -0.61195554 </v>
    <i name="Tr[quadrupol]">  -9943.93189396 </i>
    <i name="Echarged">      0.00000000 </i>
    <i name="Edipol_quadrupol">      0.00000000 </i>
    <i name="Eion">      0.00000000 </i>
   </dipole>
   <energy>
    <i name="e_fr_energy">   -811.83837139 </i>
    <i name="e_wo_entrp">   -811.83837133 </i>
    <i name="e_0_energy">   -811.83837136 </i>
   </energy>
  </scstep>
  <scstep>
   <time name="dav">   42.40   42.42</time>
   <time name="total">   43.54   43.57</time>
   <dipole>
    <v name="dipole">      0.00000000       0.00000000      -0.61148961 </v>
    <i name="Tr[quadrupol]">  -9943.98287110 </i>
    <i name="Echarged">      0.00000000 </i>
    <i name="Edipol_quadrupol">      0.00000000 </i>
    <i name="Eion">      0.00000000 </i>
   </dipole>
   <energy>
    <i name="e_fr_energy">   -811.83860399 </i>
    <i name="e_wo_entrp">   -811.83860393 </i>
    <i name="e_0_energy">   -811.83860396 </i>
   </energy>
  </scstep>
  <scstep>
   <time name="dav">   37.45   37.47</time>
   <time name="total">   38.60   38.64</time>
   <dipole>
    <v name="dipole">      0.00000000       0.00000000      -0.61069419 </v>
    <i name="Tr[quadrupol]">  -9944.03120509 </i>
    <i name="Echarged">      0.00000000 </i>
    <i name="Edipol_quadrupol">      0.00000000 </i>
    <i name="Eion">      0.00000000 </i>
   </dipole>
   <energy>
    <i name="e_fr_energy">   -811.83877711 </i>
    <i name="e_wo_entrp">   -811.83877705 </i>
    <i name="e_0_energy">   -811.83877708 </i>
   </energy>
  </scstep>
  <scstep>
   <time name="dav">   37.37   37.40</time>
   <time name="total">   38.52   38.56</time>
   <dipole>
    <v name="dipole">      0.00000000       0.00000000      -0.60802781 </v>
    <i name="Tr[quadrupol]">  -9943.97939970 </i>
    <i name="Echarged">      0.00000000 </i>
    <i name="Edipol_quadrupol">      0.00000000 </i>
    <i name="Eion">      0.00000000 </i>
   </dipole>
   <energy>
    <i name="e_fr_energy">   -811.83893042 </i>
    <i name="e_wo_entrp">   -811.83893037 </i>
    <i name="e_0_energy">   -811.83893040 </i>
   </energy>
  </scstep>
  <scstep>
   <time name="dav">   38.68   38.70</time>
   <time name="total">   39.83   39.87</time>
   <dipole>
    <v name="dipole">      0.00000000       0.00000000      -0.60807828 </v>
    <i name="Tr[quadrupol]">  -9944.02156391 </i>
    <i name="Echarged">      0.00000000 </i>
    <i name="Edipol_quadrupol">      0.00000000 </i>
    <i name="Eion">      0.00000000 </i>
   </dipole>
   <energy>
    <i name="e_fr_energy">   -811.83903942 </i>
    <i name="e_wo_entrp">   -811.83903937 </i>
    <i name="e_0_energy">   -811.83903940 </i>
   </energy>
  </scstep>
  <scstep>
   <time name="dav">   37.80   37.81</time>
   <time name="total">   38.94   38.97</time>
   <dipole>
    <v name="dipole">      0.00000000       0.00000000      -0.60796961 </v>
    <i name="Tr[quadrupol]">  -9944.05989958 </i>
    <i name="Echarged">      0.00000000 </i>
    <i name="Edipol_quadrupol">      0.00000000 </i>
    <i name="Eion">      0.00000000 </i>
   </dipole>
   <energy>
    <i name="e_fr_energy">   -811.83912706 </i>
    <i name="e_wo_entrp">   -811.83912701 </i>
    <i name="e_0_energy">   -811.83912704 </i>
   </energy>
  </scstep>
  <scstep>
   <time name="dav">   37.35   37.48</time>
   <time name="total">   38.49   38.65</time>
   <dipole>
    <v name="dipole">      0.00000000       0.00000000      -0.60769276 </v>
    <i name="Tr[quadrupol]">  -9944.08895340 </i>
    <i name="Echarged">      0.00000000 </i>
    <i name="Edipol_quadrupol">      0.00000000 </i>
    <i name="Eion">      0.00000000 </i>
   </dipole>
   <energy>
    <i name="e_fr_energy">   -811.83918682 </i>
    <i name="e_wo_entrp">   -811.83918676 </i>
    <i name="e_0_energy">   -811.83918679 </i>
   </energy>
  </scstep>
  <scstep>
   <time name="dav">   37.44   37.59</time>
   <time name="total">   38.58   38.75</time>
   <dipole>
    <v name="dipole">      0.00000000       0.00000000      -0.60748934 </v>
    <i name="Tr[quadrupol]">  -9944.10582308 </i>
    <i name="Echarged">      0.00000000 </i>
    <i name="Edipol_quadrupol">      0.00000000 </i>
    <i name="Eion">      0.00000000 </i>
   </dipole>
   <energy>
    <i name="e_fr_energy">   -811.83921914 </i>
    <i name="e_wo_entrp">   -811.83921909 </i>
    <i name="e_0_energy">   -811.83921911 </i>
   </energy>
  </scstep>
  <scstep>
   <time name="dav">   36.93   36.95</time>
   <time name="total">   38.08   38.13</time>
   <dipole>
    <v name="dipole">      0.00000000       0.00000000      -0.60728661 </v>
    <i name="Tr[quadrupol]">  -9944.11913811 </i>
    <i name="Echarged">      0.00000000 </i>
    <i name="Edipol_quadrupol">      0.00000000 </i>
    <i name="Eion">      0.00000000 </i>
   </dipole>
   <energy>
    <i name="e_fr_energy">   -811.83924475 </i>
    <i name="e_wo_entrp">   -811.83924470 </i>
    <i name="e_0_energy">   -811.83924472 </i>
   </energy>
  </scstep>
  <scstep>
   <time name="dav">   36.57   36.58</time>
   <time name="total">   37.71   37.75</time>
   <dipole>
    <v name="dipole">      0.00000000       0.00000000      -0.60722285 </v>
    <i name="Tr[quadrupol]">  -9944.12344551 </i>
    <i name="Echarged">      0.00000000 </i>
    <i name="Edipol_quadrupol">      0.00000000 </i>
    <i name="Eion">      0.00000000 </i>
   </dipole>
   <energy>
    <i name="e_fr_energy">   -811.83925505 </i>
[...]
       <r>   -49.1272     0.0000    20.0000 </r>
       <r>   -48.8917     0.0000    20.0000 </r>
       <r>   -48.6561     0.0000    20.0000 </r>
       <r>   -48.4206     0.0000    20.0000 </r>
       <r>   -48.1850     0.0000    20.0000 </r>
       <r>   -47.9495     0.0000    20.0000 </r>
       <r>   -47.7140     0.0000    20.0000 </r>
       <r>   -47.4784     0.0000    20.0000 </r>
       <r>   -47.2429     0.0000    20.0000 </r>
       <r>   -47.0073     0.0000    20.0000 </r>
       <r>   -46.7718     0.0000    20.0000 </r>
       <r>   -46.5362     0.0000    20.0000 </r>
       <r>   -46.3007     0.0000    20.0000 </r>
       <r>   -46.0652     0.0000    20.0000 </r>
       <r>   -45.8296     0.0000    20.0000 </r>
       <r>   -45.5941     0.0000    20.0000 </r>
       <r>   -45.3585     0.0000    20.0000 </r>
       <r>   -45.1230     0.0000    20.0000 </r>
       <r>   -44.8875     0.0000    20.0000 </r>
       <r>   -44.6519     0.0000    20.0000 </r>
       <r>   -44.4164     0.0000    20.0000 </r>
       <r>   -44.1808     0.0000    20.0000 </r>
       <r>   -43.9453     0.0000    20.0000 </r>
       <r>   -43.7097     0.0000    20.0000 </r>
       <r>   -43.4742     0.0000    20.0000 </r>
       <r>   -43.2387     0.0000    20.0000 </r>
       <r>   -43.0031     0.0000    20.0000 </r>
       <r>   -42.7676     0.0000    20.0000 </r>
       <r>   -42.5320     0.0000    20.0000 </r>
       <r>   -42.2965     0.0000    20.0000 </r>
       <r>   -42.0610     0.0000    20.0000 </r>
       <r>   -41.8254     0.0000    20.0000 </r>
       <r>   -41.5899     0.0000    20.0000 </r>
       <r>   -41.3543     0.0000    20.0000 </r>
       <r>   -41.1188     0.0000    20.0000 </r>
       <r>   -40.8832     0.0000    20.0000 </r>
       <r>   -40.6477     0.0000    20.0000 </r>
       <r>   -40.4122     0.0000    20.0000 </r>
       <r>   -40.1766     0.0000    20.0000 </r>
       <r>   -39.9411     0.0000    20.0000 </r>
       <r>   -39.7055     0.0000    20.0000 </r>
       <r>   -39.4700     0.0000    20.0000 </r>
       <r>   -39.2345     0.0000    20.0000 </r>
       <r>   -38.9989     0.0000    20.0000 </r>
       <r>   -38.7634     0.0000    20.0000 </r>
       <r>   -38.5278     0.0000    20.0000 </r>
       <r>   -38.2923     0.0000    20.0000 </r>
       <r>   -38.0567     0.0000    20.0000 </r>
       <r>   -37.8212     0.0000    20.0000 </r>
       <r>   -37.5857     0.0000    20.0000 </r>
       <r>   -37.3501     0.0000    20.0000 </r>
       <r>   -37.1146     0.0000    20.0000 </r>
       <r>   -36.8790     0.0000    20.0000 </r>
       <r>   -36.6435     0.0000    20.0000 </r>
       <r>   -36.4079     0.0000    20.0000 </r>
       <r>   -36.1724     0.0000    20.0000 </r>
       <r>   -35.9369     0.0000    20.0000 </r>
       <r>   -35.7013     0.0000    20.0000 </r>
       <r>   -35.4658     0.0000    20.0000 </r>
       <r>   -35.2302     0.0000    20.0000 </r>
       <r>   -34.9947     0.0000    20.0000 </r>
       <r>   -34.7592     0.0000    20.0000 </r>
       <r>   -34.5236     0.0000    20.0000 </r>
       <r>   -34.2881     0.0000    20.0000 </r>
       <r>   -34.0525     0.0000    20.0000 </r>
       <r>   -33.8170     0.0000    20.0000 </r>
       <r>   -33.5814     0.0000    20.0000 </r>
       <r>   -33.3459     0.0000    20.0000 </r>
       <r>   -33.1104     0.0000    20.0000 </r>
       <r>   -32.8748     0.0012    20.0003 </r>
       <r>   -32.6393     4.8999    21.1544 </r>
       <r>   -32.4037    12.0197    23.9856 </r>
       <r>   -32.1682     0.0626    24.0003 </r>
       <r>   -31.9327     7.6661    25.8060 </r>
       <r>   -31.6971    87.8178    46.4907 </r>
       <r>   -31.4616   136.7188    78.6937 </r>
       <r>   -31.2260    47.2839    89.8311 </r>
       <r>   -30.9905    35.9534    98.2996 </r>
       <r>   -30.7549     7.2182    99.9998 </r>
       <r>   -30.5194     0.0009   100.0000 </r>
       <r>   -30.2839     0.0000   100.0000 </r>
       <r>   -30.0483     0.0000   100.0000 </r>
       <r>   -29.8128     0.0000   100.0000 </r>
       <r>   -29.5772     0.0000   100.0000 </r>
       <r>   -29.3417     0.0000   100.0000 </r>
       <r>   -29.1062     0.0000   100.0000 </r>
       <r>   -28.8706     0.0000   100.0000 </r>
       <r>   -28.6351     0.0000   100.0000 </r>
       <r>   -28.3995     0.0000   100.0000 </r>
       <r>   -28.1640     0.0000   100.0000 </r>
       <r>   -27.9284     0.0000   100.0000 </r>
       <r>   -27.6929     0.0000   100.0000 </r>
       <r>   -27.4574     0.0000   100.0000 </r>
       <r>   -27.2218     0.0000   100.0000 </r>
       <r>   -26.9863     0.0000   100.0000 </r>
       <r>   -26.7507     0.0000   100.0000 </r>
       <r>   -26.5152     0.0000   100.0000 </r>
       <r>   -26.2797     0.0000   100.0000 </r>
       <r>   -26.0441     0.0000   100.0000 </r>
       <r>   -25.8086     0.0000   100.0000 </r>
       <r>   -25.5730     0.0000   100.0000 </r>
       <r>   -25.3375     0.0000   100.0000 </r>
       <r>   -25.1019     0.0000   100.0000 </r>
       <r>   -24.8664     0.0000   100.0000 </r>
       <r>   -24.6309     0.0000   100.0000 </r>
       <r>   -24.3953     0.0000   100.0000 </r>
       <r>   -24.1598     0.0000   100.0000 </r>
       <r>   -23.9242     0.0000   100.0000 </r>
       <r>   -23.6887     0.0000   100.0000 </r>
       <r>   -23.4532     0.0000   100.0000 </r>
       <r>   -23.2176     0.0000   100.0000 </r>
       <r>   -22.9821     0.0000   100.0000 </r>
       <r>   -22.7465     0.0000   100.0000 </r>
       <r>   -22.5110     0.0000   100.0000 </r>
       <r>   -22.2754     0.0000   100.0000 </r>
       <r>   -22.0399     0.0000   100.0000 </r>
       <r>   -21.8044     0.0000   100.0000 </r>
       <r>   -21.5688     0.0000   100.0000 </r>
       <r>   -21.3333     0.0000   100.0000 </r>
       <r>   -21.0977     0.0000   100.0000 </r>
       <r>   -20.8622     0.0000   100.0000 </r>
       <r>   -20.6267     0.0000   100.0000 </r>
       <r>   -20.3911     0.0000   100.0000 </r>
       <r>   -20.1556     0.0000   100.0000 </r>
       <r>   -19.9200     0.0000   100.0000 </r>
       <r>   -19.6845     0.0000   100.0000 </r>
       <r>   -19.4489     0.0000   100.0000 </r>
       <r>   -19.2134     0.0000   100.0000 </r>
       <r>   -18.9779     0.0000   100.0000 </r>
       <r>   -18.7423     0.0000   100.0000 </r>
       <r>   -18.5068     0.0000   100.0000 </r>
       <r>   -18.2712     0.0000   100.0000 </r>
       <r>   -18.0357     0.0000   100.0000 </r>
       <r>   -17.8002     0.0000   100.0000 </r>
       <r>   -17.5646     0.0000   100.0000 </r>
       <r>   -17.3291     0.0000   100.0000 </r>
       <r>   -17.0935     0.0000   100.0000 </r>
       <r>   -16.8580     0.1912   100.0450 </r>
       <r>   -16.6224     3.4180   100.8501 </r>
       <r>   -16.3869     8.1122   102.7609 </r>
       <r>   -16.1514    14.3276   106.1356 </r>
       <r>   -15.9158    22.6973   111.4818 </r>
       <r>   -15.6803    27.9603   118.0676 </r>
       <r>   -15.4447    18.2129   122.3575 </r>
       <r>   -15.2092    52.9513   134.8297 </r>
       <r>   -14.9736    62.4943   149.5498 </r>
       <r>   -14.7381    17.7303   153.7260 </r>
       <r>   -14.5026    17.6377   157.8804 </r>
       <r>   -14.2670    40.2110   167.3518 </r>
       <r>   -14.0315     8.8865   169.4449 </r>
       <r>   -13.7959     9.3099   171.6378 </r>
       <r>   -13.5604    39.3319   180.9021 </r>
       <r>   -13.3249    63.3240   195.8176 </r>
       <r>   -13.0893    62.0989   210.4445 </r>
       <r>   -12.8538    31.4067   217.8421 </r>
       <r>   -12.6182     9.1340   219.9935 </r>
       <r>   -12.3827     0.0276   220.0000 </r>
       <r>   -12.1471     0.0000   220.0000 </r>
       <r>   -11.9116     0.0000   220.0000 </r>
       <r>   -11.6761     0.0000   220.0000 </r>
       <r>   -11.4405     0.0000   220.0000 </r>
       <r>   -11.2050     0.0000   220.0000 </r>
       <r>   -10.9694     0.0005   220.0001 </r>
       <r>   -10.7339     1.5662   220.3690 </r>
       <r>   -10.4984     2.6730   220.9986 </r>
       <r>   -10.2628     0.0058   221.0000 </r>
       <r>   -10.0273     0.0000   221.0000 </r>
       <r>    -9.7917     0.0000   221.0000 </r>
       <r>    -9.5562     0.0000   221.0000 </r>
       <r>    -9.3206     0.0000   221.0000 </r>
       <r>    -9.0851     0.0000   221.0000 </r>
       <r>    -8.8496     0.0000   221.0000 </r>
       <r>    -8.6140     0.0000   221.0000 </r>
       <r>    -8.3785     0.0000   221.0000 </r>
       <r>    -8.1429     0.0000   221.0000 </r>
       <r>    -7.9074     0.0000   221.0000 </r>
       <r>    -7.6719     0.0000   221.0000 </r>
       <r>    -7.4363     0.0000   221.0000 </r>
       <r>    -7.2008     0.0000   221.0000 </r>
       <r>    -6.9652     0.0000   221.0000 </r>
       <r>    -6.7297     0.0000   221.0000 </r>
       <r>    -6.4941     0.0000   221.0000 </r>
       <r>    -6.2586     0.0000   221.0000 </r>
       <r>    -6.0231     0.0000   221.0000 </r>
       <r>    -5.7875     0.0000   221.0000 </r>
       <r>    -5.5520     0.0000   221.0000 </r>
       <r>    -5.3164     0.0000   221.0000 </r>
       <r>    -5.0809     0.0000   221.0000 </r>
       <r>    -4.8454     0.5724   221.1348 </r>
       <r>    -4.6098     7.6284   222.9316 </r>
       <r>    -4.3743     0.2903   223.0000 </r>
       <r>    -4.1387     0.0000   223.0000 </r>
       <r>    -3.9032     0.0002   223.0000 </r>
       <r>    -3.6676     0.3539   223.0834 </r>
       <r>    -3.4321     5.0860   224.2813 </r>
       <r>    -3.1966    13.4351   227.4459 </r>
       <r>    -2.9610    29.4764   234.3888 </r>
       <r>    -2.7255    36.4671   242.9783 </r>
       <r>    -2.4899    44.2371   253.3980 </r>
       <r>    -2.2544    43.2657   263.5889 </r>
       <r>    -2.0189    44.5611   274.0849 </r>
       <r>    -1.7833    63.9860   289.1562 </r>
       <r>    -1.5478    53.0226   301.6453 </r>
       <r>    -1.3122    32.7495   309.3591 </r>
       <r>    -1.0767    33.9289   317.3508 </r>
       <r>    -0.8411    34.2281   325.4130 </r>
       <r>    -0.6056    29.0657   332.2592 </r>
       <r>    -0.3701    39.5947   341.5854 </r>
       <r>    -0.1345    36.2968   350.1348 </r>
       <r>     0.1010    54.2759   362.9190 </r>
       <r>     0.3366    58.8896   376.7900 </r>
       <r>     0.5721    42.7145   386.8510 </r>
       <r>     0.8076    32.2348   394.4437 </r>
       <r>     1.0432    19.8150   399.1109 </r>
       <r>     1.2787    11.5948   401.8420 </r>
       <r>     1.5143     0.6872   402.0038 </r>
       <r>     1.7498     1.7064   402.4058 </r>
       <r>     1.9854     2.0301   402.8839 </r>
       <r>     2.2209     2.9701   403.5835 </r>
       <r>     2.4564     1.7675   403.9998 </r>
       <r>     2.6920     0.0353   404.0081 </r>
       <r>     2.9275     0.4310   404.1096 </r>
       <r>     3.1631     1.2580   404.4060 </r>
       <r>     3.3986     6.8621   406.0223 </r>
       <r>     3.6341    11.5571   408.7444 </r>
       <r>     3.8697    18.3490   413.0664 </r>
       <r>     4.1052    20.2901   417.8456 </r>
       <r>     4.3408    23.9214   423.4800 </r>
       <r>     4.5763    38.1766   432.4722 </r>
       <r>     4.8119    46.3610   443.3922 </r>
       <r>     5.0474    46.1605   454.2649 </r>
       <r>     5.2829    25.6441   460.3052 </r>
       <r>     5.5185    20.3455   465.0974 </r>
       <r>     5.7540    22.9062   470.4928 </r>
       <r>     5.9896    20.0435   475.2138 </r>
       <r>     6.2251    17.1443   479.2521 </r>
       <r>     6.4606    16.7731   483.2028 </r>
       <r>     6.6962    19.0967   487.7009 </r>
       <r>     6.9317    17.8472   491.9046 </r>
       <r>     7.1673    18.0502   496.1562 </r>
       <r>     7.4028    19.9248   500.8493 </r>
       <r>     7.6384    24.8555   506.7038 </r>
       <r>     7.8739    18.2275   510.9972 </r>
       <r>     8.1094    30.6660   518.2203 </r>
       <r>     8.3450    30.9314   525.5059 </r>
       <r>     8.5805    36.1697   534.0254 </r>
       <r>     8.8161    12.5747   536.9873 </r>
       <r>     9.0516     0.0540   537.0000 </r>
       <r>     9.2872     0.0000   537.0000 </r>
       <r>     9.5227     0.0000   537.0000 </r>
       <r>     9.7582     0.0000   537.0000 </r>
       <r>     9.9938     0.0000   537.0000 </r>
       <r>    10.2293     0.0000   537.0000 </r>
       <r>    10.4649     0.0000   537.0000 </r>
       <r>    10.7004     0.0000   537.0000 </r>
       <r>    10.9359     0.0000   537.0000 </r>
       <r>    11.1715     0.0000   537.0000 </r>
       <r>    11.4070     0.0000   537.0000 </r>
       <r>    11.6426     0.0000   537.0000 </r>
       <r>    11.8781     0.0000   537.0000 </r>
      </set>
     </set>
    </array>
   </total>
  </dos>
 </calculation>
 <structure name="finalpos" >
  <crystal>
   <varray name="basis" >
    <v>       7.81059980       0.00000000       0.00000000 </v>
    <v>       0.00000000       7.81059980       0.00000000 </v>
    <v>       0.00000000       0.00000000      29.57379913 </v>
   </varray>
   <i name="volume">   1804.16349501 </i>
   <varray name="rec_basis" >
    <v>       0.12803114       0.00000000       0.00000000 </v>
    <v>       0.00000000       0.12803114       0.00000000 </v>
    <v>       0.00000000       0.00000000       0.03381371 </v>
   </varray>
  </crystal>
  <varray name="positions" >
   <v>       0.24671742       0.24754960       0.05569469 </v>
   <v>       0.24584000       0.74826765       0.05573884 </v>
   <v>       0.74597235       0.24822082       0.05572529 </v>
   <v>       0.74683420       0.74762419       0.05571086 </v>
   <v>       0.24646824       0.24714324       0.19404374 </v>
   <v>       0.24571728       0.74786354       0.19406136 </v>
   <v>       0.74579762       0.24771329       0.19407481 </v>
   <v>       0.74665363       0.74716589       0.19405648 </v>
   <v>       0.24772756       0.24872775       0.32871956 </v>
   <v>       0.24796978       0.74867143       0.32875578 </v>
   <v>       0.74810463       0.24854903       0.32879332 </v>
   <v>       0.74789665       0.74881826       0.32877319 </v>
   <v>       0.24991350       0.25001913       0.46206165 </v>
   <v>       0.24915234       0.75049600       0.46196952 </v>
   <v>       0.74953963       0.25050982       0.46210170 </v>
   <v>       0.74998882       0.75031945       0.46208734 </v>
   <v>       0.25251491       0.25255433       0.59265448 </v>
   <v>       0.25261702       0.75071266       0.59214875 </v>
   <v>       0.75100210       0.25205700       0.59261494 </v>
   <v>       0.75039085       0.75113970       0.59226767 </v>
   <v>      -0.00786725      -0.00470556       0.12834698 </v>
   <v>      -0.00594831       0.49341467       0.12831497 </v>
   <v>       0.49409558      -0.00662105       0.12830634 </v>
   <v>       0.49217256       0.49526104       0.12828989 </v>
   <v>      -0.00430090      -0.00402557       0.26227463 </v>
   <v>      -0.00528128       0.49676737       0.26216698 </v>
   <v>       0.49482784      -0.00330034       0.26213976 </v>
   <v>       0.49564712       0.49592562       0.26210662 </v>
   <v>      -0.00214996       0.99878097       0.39686272 </v>
   <v>      -0.00160217       0.49826597       0.39671812 </v>
   <v>       0.49843553      -0.00172328       0.39667759 </v>
   <v>       0.49775836       0.49862661       0.39647239 </v>
   <v>       0.00085275       0.00140546       0.53304837 </v>
   <v>       0.00071790       0.50087309       0.53276740 </v>
   <v>       0.50073473       0.00103024       0.53267561 </v>
   <v>       0.50086554       0.50124801       0.53228092 </v>
   <v>       0.99347869       0.99526791       0.99689066 </v>
   <v>       0.99362358       0.49477807       0.99689125 </v>
   <v>       0.49362990       0.99470168       0.99689883 </v>
   <v>       0.49350200       0.49525364       0.99694232 </v>
   <v>       0.00155782       0.00454162       0.05984060 </v>
   <v>       0.00224481       0.50177973       0.05987253 </v>
   <v>       0.50219750       0.00181206       0.05988133 </v>
   <v>       0.50146485       0.50457931       0.05991202 </v>
   <v>       0.03071458       0.25409988       0.12745130 </v>
   <v>      -0.02484777       0.75416571       0.12691030 </v>
   <v>       0.25293863      -0.02354978       0.12721215 </v>
   <v>       0.25278778       0.53204241       0.12725450 </v>
   <v>       0.47511426       0.25429972       0.12695067 </v>
   <v>       0.53070357       0.75408026       0.12754078 </v>
   <v>       0.75266584       0.03206696       0.12719348 </v>
   <v>       0.75287889       0.47645582       0.12725896 </v>
   <v>       0.00173317       0.00173108       0.19433100 </v>
   <v>       0.00136237       0.50388569       0.19437782 </v>
   <v>       0.50123909       0.00426403       0.19438889 </v>
   <v>       0.50174271       0.50149829       0.19439730 </v>
   <v>      -0.02409458       0.25298358       0.26124126 </v>
   <v>       0.02743117       0.75297505       0.26199386 </v>
   <v>       0.25178584       0.02863122       0.26179286 </v>
   <v>       0.25184358       0.47702405       0.26156861 </v>
   <v>       0.52754894       0.25302895       0.26216873 </v>
   <v>       0.47587547       0.75297814       0.26118924 </v>
   <v>       0.75176368      -0.02290551       0.26148130 </v>
   <v>       0.75177489       0.52871689       0.26179593 </v>
   <v>       0.00057341       0.00401854       0.32873893 </v>
   <v>       0.00172209       0.50074429       0.32876874 </v>
   <v>       0.50190807       0.00023502       0.32878721 </v>
   <v>       0.50080989       0.50457700       0.32881106 </v>
   <v>       0.02549729       0.25251082       0.39647303 </v>
   <v>       0.97723391       0.75251359       0.39559606 </v>
   <v>       0.25127584       0.97847959       0.39583641 </v>
   <v>       0.25130551       0.52679148       0.39618241 </v>
   <v>       0.47706975       0.25260971       0.39542080 </v>
   <v>       0.52541608       0.75253610       0.39669687 </v>
   <v>       0.75126025       0.02675547       0.39623621 </v>
   <v>       0.75124367       0.47843814       0.39592117 </v>
   <v>       0.00167814       0.00054286       0.46315044 </v>
   <v>       0.00054272       0.50362605       0.46313704 </v>
   <v>       0.50014477       0.00480904       0.46314667 </v>
   <v>       0.50123294       0.49961633       0.46312843 </v>
   <v>       0.97351860       0.25165809       0.53073162 </v>
   <v>       0.02668448       0.75179666       0.53156667 </v>
   <v>       0.25030687       0.02831889       0.53138603 </v>
   <v>       0.25018677       0.47487349       0.53091286 </v>
   <v>       0.52693393       0.25164221       0.53171674 </v>
   <v>       0.47350491       0.75205422       0.53012729 </v>
   <v>       0.75047977       0.97517002       0.53092133 </v>
   <v>       0.75063916       0.52834850       0.53098944 </v>
   <v>      -0.00050661       0.00353412       0.59807476 </v>
   <v>       0.00038390       0.50000119       0.59795298 </v>
   <v>       0.50071671       0.99888060       0.59788322 </v>
   <v>       0.49995681       0.50552511       0.59728392 </v>
   <v>       0.00297215       0.25621062       0.99283520 </v>
   <v>       0.00600289       0.75624815       0.99342594 </v>
   <v>       0.25472501       0.00762863       0.99325833 </v>
   <v>       0.25469138       0.50453985       0.99305460 </v>
   <v>       0.50597030       0.25632255       0.99347568 </v>
   <v>       0.50295139       0.75617237       0.99287547 </v>
   <v>       0.75461742       0.00456045       0.99303485 </v>
   <v>       0.75465415       0.50760864       0.99329899 </v>
   <v>       0.50401021       0.45573975       0.72014547 </v>
   <v>       0.42535259       0.34972447       0.73172593 </v>
   <v>       0.64234682       0.44202689       0.71864308 </v>
   <v>       0.44598820       0.57939791       0.71325640 </v>
  </varray>
 </structure>
</modeling>
