Sr Ti O3  (Pm-3m) ~ C:/Users/Amar-Deep. 
           1
     7.810600    0.000000    0.000000
     0.000000    7.810600    0.000000
     0.000000    0.000000   29.573799
   Sr   Ti   O    C    H 
  20  20  60   1   3
Direct configuration=     1
   0.25000000  0.25000000  0.05776000
   0.25000000  0.74999998  0.05776000
   0.74999998  0.25000000  0.05776000
   0.74999998  0.74999998  0.05776000
   0.25000000  0.25000000  0.19598000
   0.25000000  0.74999998  0.19598000
   0.74999998  0.25000000  0.19598000
   0.74999998  0.74999998  0.19598000
   0.25027999  0.24997001  0.33063001
   0.25034002  0.75006000  0.33076000
   0.75037001  0.24990000  0.33068999
   0.75031000  0.75015005  0.33067000
   0.25081000  0.24991000  0.46384001
   0.25085000  0.75010005  0.46373001
   0.75086000  0.24998001  0.46387000
   0.75084003  0.75006995  0.46382001
   0.25106999  0.25041000  0.59342002
   0.25154000  0.74953997  0.59352998
   0.75225004  0.24947999  0.59368000
   0.75159003  0.75064998  0.59340003
   0.00000000  0.00000000  0.13085000
   0.00000000  0.50000000  0.13085000
   0.50000000  0.00000000  0.13085000
   0.50000000  0.50000000  0.13085000
   0.00000000  0.00000000  0.26447001
   0.00000000  0.50000000  0.26447001
   0.50000000  0.00000000  0.26447001
   0.50000000  0.50000000  0.26447001
   0.00048000  0.99993999  0.39877001
   0.00042000  0.49998001  0.39886001
   0.50054997  0.00000000  0.39886001
   0.50066001  0.49990000  0.39875998
   0.00118000  0.99998999  0.53474998
   0.00141000  0.50010003  0.53478997
   0.50121999  0.99990000  0.53489000
   0.50130998  0.49998001  0.53473999
   0.99947002  0.99978999  0.99947998
   0.99948004  0.49979002  0.99949004
   0.49946999  0.99978999  0.99949004
   0.49948001  0.49979002  0.99947998
   0.00000000  0.00000000  0.06211000
   0.00000000  0.50000000  0.06211000
   0.50000000  0.00000000  0.06211000
   0.50000000  0.50000000  0.06211000
   0.00000000  0.25000000  0.12976999
   0.00000000  0.74999998  0.12976999
   0.25000000  0.00000000  0.12976999
   0.25000000  0.50000000  0.12976999
   0.50000000  0.25000000  0.12976999
   0.50000000  0.74999998  0.12976999
   0.74999998  0.00000000  0.12976999
   0.74999998  0.50000000  0.12976999
   0.00000000  0.00000000  0.19662000
   0.00000000  0.50000000  0.19662000
   0.50000000  0.00000000  0.19662000
   0.50000000  0.50000000  0.19662000
   0.00000000  0.25000000  0.26390001
   0.00000000  0.74999998  0.26390001
   0.25000000  0.00000000  0.26390001
   0.25000000  0.50000000  0.26390001
   0.50000000  0.25000000  0.26390001
   0.50000000  0.74999998  0.26390001
   0.74999998  0.00000000  0.26390001
   0.74999998  0.50000000  0.26390001
   0.00000000  0.00015000  0.33087000
   0.00074000  0.49996999  0.33087999
   0.50073999  0.99977998  0.33087999
   0.50010998  0.50032002  0.33092001
   0.00211000  0.25011000  0.39809001
   0.99937998  0.75015005  0.39800998
   0.25061000  0.99866996  0.39794000
   0.25070000  0.50164002  0.39834999
   0.49935000  0.25016999  0.39795000
   0.50208999  0.75006000  0.39823000
   0.75068997  0.00148000  0.39816002
   0.75066000  0.49882998  0.39783000
   0.00126000  0.99988004  0.46514002
   0.99927003  0.50028004  0.46507998
   0.50054002  0.00084000  0.46510000
   0.50224002  0.49943001  0.46522999
   0.99715000  0.25012001  0.53297000
   0.00476000  0.75011000  0.53305000
   0.25105000  0.00385000  0.53315997
   0.25119000  0.49612998  0.53258003
   0.50508998  0.25009998  0.53333997
   0.49746001  0.74996000  0.53283001
   0.75098002  0.99607998  0.53289999
   0.75123002  0.50393998  0.53351997
   0.00019000  0.00033000  0.59971998
   0.00325000  0.50006996  0.59969005
   0.50151999  0.99892998  0.59981001
   0.49858001  0.50145000  0.59991998
   0.00033000  0.25015000  0.99557000
   0.00034000  0.75015005  0.99557000
   0.25036999  0.00013000  0.99557000
   0.25036999  0.50013001  0.99557000
   0.50033999  0.25015000  0.99557000
   0.50032998  0.75015005  0.99557000
   0.75037001  0.00013000  0.99557000
   0.75037001  0.50013001  0.99557000
   0.49358999  0.48504000  0.66756998
   0.40493000  0.37846000  0.66483999
   0.63058001  0.46137000  0.66866006
   0.44534001  0.61532996  0.66903994
Direct configuration=     2
   0.24995946  0.24998415  0.05766049
   0.24995942  0.74998329  0.05766056
   0.74995900  0.24998416  0.05766051
   0.74995902  0.74998327  0.05766060
   0.24999414  0.25000340  0.19584810
   0.24999854  0.74999669  0.19585254
   0.75000623  0.24999442  0.19584976
   0.75000182  0.75000565  0.19585055
   0.25025989  0.24997690  0.33051374
   0.25031201  0.75004356  0.33061274
   0.75036495  0.24992360  0.33056011
   0.75031299  0.75011447  0.33054109
   0.25077989  0.24988034  0.46369634
   0.25082413  0.75012385  0.46361810
   0.75088374  0.24993739  0.46373076
   0.75085414  0.75009926  0.46368514
   0.25008808  0.24949929  0.59300901
   0.25066754  0.75028751  0.59321297
   0.75281007  0.24864168  0.59335413
   0.75222258  0.75137968  0.59317588
  -0.00000199 -0.00000107  0.13051964
  -0.00000159  0.49999977  0.13052191
   0.49999856 -0.00000137  0.13052075
   0.49999813  0.49999991  0.13051506
  -0.00002482 -0.00001454  0.26412399
   0.00007032  0.50001712  0.26415858
   0.50007272 -0.00006063  0.26414691
   0.49997756  0.50006137  0.26411884
   0.00052556  0.99997585  0.39846864
   0.00037686  0.49994844  0.39849029
   0.50052423  0.00004047  0.39851703
   0.50071276  0.49984805  0.39840038
   0.00127727  0.99998760  0.53440413
   0.00140611  0.50010860  0.53437760
   0.50114390  0.99984796  0.53449613
   0.50133229  0.49972196  0.53346032
   0.99941329  0.99976763  0.99910320
   0.99942319  0.49976596  0.99910044
   0.49941241  0.99976781  0.99910029
   0.49942208  0.49976569  0.99909731
   0.00001951  0.00000815  0.06243365
   0.00002009  0.50000822  0.06243876
   0.50001973  0.00000811  0.06243907
   0.50002004  0.50000833  0.06243585
   0.00000164  0.25000178  0.12985474
   0.00000145  0.74999741  0.12985456
   0.25000252  0.00000095  0.12985474
   0.25000039  0.50000031  0.12985521
   0.50000141  0.24999959  0.12985535
   0.50000163  0.74999968  0.12985525
   0.74999624  0.00000090  0.12985481
   0.74999860  0.50000034  0.12985511
   0.00000983  0.00000222  0.19691355
   0.00000631  0.50000005  0.19691285
   0.50000511  0.00000430  0.19691501
   0.50001032  0.49999837  0.19692361
  -0.00000796  0.24999237  0.26396909
  -0.00000476  0.75002598  0.26397558
   0.25005542  0.00001837  0.26398816
   0.25011337  0.49997984  0.26396391
   0.49999186  0.25004183  0.26398754
   0.49998839  0.74997482  0.26396685
   0.75006502 -0.00000033  0.26395896
   0.75002087  0.49999850  0.26398785
   0.00003212  0.00015028  0.33114588
   0.00076139  0.49996923  0.33114900
   0.50068976  0.99979126  0.33115353
   0.50004488  0.50031908  0.33119001
   0.00215192  0.25010096  0.39819827
   0.99934278  0.75013593  0.39811687
   0.25066901  0.99864813  0.39804872
   0.25072742  0.50165596  0.39846123
   0.49929122  0.25016539  0.39806492
   0.50210748  0.75007968  0.39834104
   0.75066570  0.00151363  0.39826302
   0.75060784  0.49879044  0.39794814
   0.00125927  0.99990052  0.46534888
   0.99933886  0.50028986  0.46535984
   0.50047414  0.00084292  0.46536303
   0.50223217  0.49948001  0.46549917
   0.99708231  0.25017245  0.53308584
   0.00488092  0.74999270  0.53316095
   0.25115766  0.00393002  0.53327036
   0.25141514  0.49607204  0.53277197
   0.50517544  0.25037082  0.53354525
   0.49737766  0.74976090  0.53303329
   0.75091064  0.99607761  0.53302026
   0.75077409  0.50394161  0.53373466
   0.00015078  0.00037888  0.59997044
   0.00305847  0.49999656  0.60000703
   0.50154081  0.99893011  0.60006739
   0.49914126  0.50270984  0.59694031
   0.00035739  0.25016730  0.99570871
   0.00036432  0.75017247  0.99570849
   0.25042195  0.00014309  0.99570840
   0.25042103  0.50014093  0.99570976
   0.50036454  0.25016758  0.99571013
   0.50035768  0.75017233  0.99570987
   0.75042692  0.00014039  0.99570826
   0.75042556  0.50014357  0.99570963
   0.49303979  0.48431764  0.66960319
   0.40555271  0.37877444  0.66575005
   0.63029011  0.46152495  0.66928048
   0.44574331  0.61482922  0.66972910
Direct configuration=     3
   0.24995311  0.24998166  0.05764489
   0.24995306  0.74998067  0.05764497
   0.74995257  0.24998168  0.05764491
   0.74995260  0.74998065  0.05764502
   0.24999322  0.25000393  0.19582742
   0.24999831  0.74999617  0.19583256
   0.75000721  0.24999354  0.19582934
   0.75000211  0.75000654  0.19583025
   0.25025674  0.24997798  0.33049550
   0.25030762  0.75004098  0.33058964
   0.75036415  0.24992731  0.33053974
   0.75031346  0.75010889  0.33052087
   0.25077517  0.24987569  0.46367381
   0.25082007  0.75012758  0.46360056
   0.75088746  0.24993070  0.46370892
   0.75085636  0.75010386  0.46366399
   0.24993411  0.24935648  0.59294456
   0.25053073  0.75040474  0.59316326
   0.75289789  0.24851022  0.59330303
   0.75232177  0.75149411  0.59314073
  -0.00000230 -0.00000124  0.13046783
  -0.00000184  0.49999973  0.13047046
   0.49999833 -0.00000158  0.13046912
   0.49999784  0.49999989  0.13046254
  -0.00002871 -0.00001682  0.26406973
   0.00008134  0.50001980  0.26410974
   0.50008413 -0.00007014  0.26409624
   0.49997405  0.50007099  0.26406377
   0.00053270  0.99998147  0.39842138
   0.00037010  0.49994349  0.39843231
   0.50052019  0.00004682  0.39846325
   0.50072104  0.49983991  0.39834399
   0.00129252  0.99998722  0.53434989
   0.00140550  0.50010995  0.53431294
   0.50113197  0.99983980  0.53443437
   0.50133579  0.49968149  0.53325965
   0.99940440  0.99976413  0.99904412
   0.99941427  0.49976219  0.99903935
   0.49940338  0.99976433  0.99903917
   0.49941299  0.49976187  0.99903731
   0.00002257  0.00000943  0.06248440
   0.00002324  0.50000951  0.06249031
   0.50002282  0.00000938  0.06249068
   0.50002319  0.50000964  0.06248695
   0.00000190  0.25000206  0.12986803
   0.00000168  0.74999700  0.12986782
   0.25000291  0.00000109  0.12986803
   0.25000045  0.50000036  0.12986857
   0.50000163  0.24999953  0.12986874
   0.50000188  0.74999964  0.12986862
   0.74999565  0.00000104  0.12986811
   0.74999838  0.50000039  0.12986845
   0.00001137  0.00000256  0.19695958
   0.00000730  0.50000005  0.19695877
   0.50000591  0.00000497  0.19696127
   0.50001193  0.49999811  0.19697122
  -0.00000921  0.24999117  0.26397992
  -0.00000551  0.75003006  0.26398743
   0.25006411  0.00002125  0.26400198
   0.25013115  0.49997668  0.26397393
   0.49999059  0.25004839  0.26400127
   0.49998657  0.74997087  0.26397733
   0.75007522 -0.00000038  0.26396820
   0.75002415  0.49999826  0.26400163
   0.00003715  0.00015032  0.33118914
   0.00076474  0.49996911  0.33119119
   0.50068189  0.99979303  0.33119643
   0.50003467  0.50031893  0.33123235
   0.00215849  0.25009954  0.39821524
   0.99933694  0.75013371  0.39813364
   0.25067826  0.99864470  0.39806577
   0.25073172  0.50165846  0.39847867
   0.49928200  0.25016467  0.39808294
   0.50211022  0.75008277  0.39835846
   0.75066189  0.00151890  0.39827917
   0.75059966  0.49878424  0.39796666
   0.00125916  0.99990373  0.46538163
   0.99934965  0.50029140  0.46540372
   0.50046381  0.00084338  0.46540428
   0.50223094  0.49948785  0.46554138
   0.99707169  0.25018067  0.53310400
   0.00489988  0.74997430  0.53317834
   0.25117454  0.00394256  0.53328767
   0.25145045  0.49606295  0.53280207
   0.50518884  0.25041329  0.53357744
   0.49736475  0.74972967  0.53306517
   0.75089976  0.99607724  0.53303912
   0.75070260  0.50394186  0.53376832
   0.00014463  0.00038654  0.60000972
   0.00302844  0.49998505  0.60005673
   0.50154408  0.99893013  0.60010775
   0.49922927  0.50290740  0.59647305
   0.00036169  0.25017002  0.99573046
   0.00036814  0.75017599  0.99573021
   0.25043010  0.00014514  0.99573011
   0.25042903  0.50014264  0.99573167
   0.50036839  0.25017033  0.99573211
   0.50036202  0.75017582  0.99573180
   0.75043584  0.00014202  0.99572994
   0.75043428  0.50014570  0.99573153
   0.49295351  0.48420437  0.66992203
   0.40565036  0.37882374  0.66589276
   0.63024465  0.46154925  0.66937777
   0.44580656  0.61475069  0.66983717
Direct configuration=     4
   0.24990008  0.24996073  0.05771316
   0.24989993  0.74995941  0.05771314
   0.74990045  0.24996105  0.05771314
   0.74990056  0.74995907  0.05771308
   0.24999647  0.24999824  0.19586555
   0.24999639  0.75000259  0.19586934
   0.75001176  0.24999919  0.19586849
   0.75001184  0.75000157  0.19586466
   0.25024878  0.24994721  0.33053602
   0.25027885  0.75005942  0.33060546
   0.75034916  0.24992301  0.33056199
   0.75031899  0.75009732  0.33055718
   0.25070903  0.24984310  0.46368128
   0.25080855  0.75015006  0.46365516
   0.75094272  0.24982952  0.46373575
   0.75086224  0.75017182  0.46370317
   0.24921353  0.24883214  0.59253776
   0.25005864  0.75071799  0.59284933
   0.75306212  0.24801822  0.59298091
   0.75249477  0.75178348  0.59293248
  -0.00000527 -0.00000368  0.13060351
  -0.00000892  0.49999809  0.13061264
   0.49999063 -0.00000216  0.13060925
   0.49999421  0.49999614  0.13059395
   0.00002867  0.00000568  0.26418946
   0.00010299  0.49999963  0.26421679
   0.50008705 -0.00003095  0.26421826
   0.50001259  0.50003174  0.26415265
   0.00055074  0.99995516  0.39854159
   0.00042999  0.49997565  0.39857970
   0.50052597 -0.00000383  0.39862623
   0.50066971  0.49988230  0.39833601
   0.00118812  0.99993104  0.53444875
   0.00124979  0.50014630  0.53452818
   0.50122888  0.99944206  0.53463844
   0.50144264  0.49974624  0.53237092
   0.99929286  0.99971883  0.99934441
   0.99930273  0.49971805  0.99933959
   0.49929239  0.99971880  0.99933913
   0.49930188  0.49971772  0.99933620
   0.00004710  0.00001943  0.06203389
   0.00004867  0.50001934  0.06203377
   0.50004774  0.00001918  0.06203447
   0.50004813  0.50001969  0.06203498
   0.00000386  0.24999102  0.12988521
   0.00000340  0.75000956  0.12988514
   0.24999635  0.00000137  0.12988545
   0.25001912  0.50000168  0.12988740
   0.50000351  0.25001351  0.12988758
   0.50000405  0.74998733  0.12988795
   0.75000824  0.00000143  0.12988593
   0.74998634  0.50000157  0.12988697
   0.00003146 -0.00000011  0.19674632
   0.00002515  0.50000817  0.19675509
   0.50002163  0.00000473  0.19675322
   0.50003355  0.50000418  0.19676283
  -0.00000619  0.25003283  0.26396949
   0.00001053  0.75000260  0.26398459
   0.25012124  0.00002825  0.26400925
   0.25014623  0.49997305  0.26395866
   0.50000942  0.25004495  0.26401294
   0.49999212  0.74998937  0.26396491
   0.75010902 -0.00001405  0.26394509
   0.75010704  0.50001530  0.26401857
   0.00007192  0.00015549  0.33100962
   0.00079978  0.49996431  0.33101868
   0.50064853  0.99980093  0.33101525
   0.49996645  0.50032873  0.33105529
   0.00221090  0.25013739  0.39823320
   0.99927522  0.75007900  0.39814880
   0.25068101  0.99862601  0.39808504
   0.25079759  0.50166641  0.39850759
   0.49921296  0.25029072  0.39811924
   0.50215275  0.74997606  0.39838673
   0.75066532  0.00158776  0.39829201
   0.75051065  0.49870570  0.39800310
   0.00127714  0.99993455  0.46524674
   0.99940438  0.50028528  0.46521312
   0.50037284  0.00090122  0.46520338
   0.50222588  0.49951132  0.46490432
   0.99701992  0.24977344  0.53307499
   0.00505235  0.75033610  0.53314802
   0.25074906  0.00408139  0.53325374
   0.24944148  0.49588387  0.53258508
   0.50527766  0.24857134  0.53339572
   0.49718761  0.75182742  0.53281058
   0.75132807  0.99610352  0.53301397
   0.75261312  0.50394343  0.53355050
   0.00015611  0.00046285  0.59990282
   0.00278685  0.49987468  0.60005129
   0.50153300  0.99899848  0.60007036
   0.49973880  0.50413377  0.59480967
   0.00041235  0.25021013  0.99577404
   0.00041617  0.75020732  0.99577360
   0.25052830  0.00016732  0.99577330
   0.25052321  0.50016261  0.99577599
   0.50041623  0.25020773  0.99577698
   0.50041258  0.75021011  0.99577640
   0.75052369  0.00016221  0.99577300
   0.75052375  0.50016760  0.99577572
   0.49417142  0.48481507  0.67229405
   0.40508762  0.37764890  0.66694457
   0.62972337  0.46170623  0.67013291
   0.44608375  0.61438115  0.67066825
Direct configuration=     5
   0.24989852  0.24996012  0.05771517
   0.24989837  0.74995878  0.05771515
   0.74989892  0.24996045  0.05771514
   0.74989903  0.74995844  0.05771508
   0.24999656  0.24999807  0.19586667
   0.24999633  0.75000278  0.19587042
   0.75001189  0.24999936  0.19586963
   0.75001213  0.75000143  0.19586567
   0.25024854  0.24994631  0.33053721
   0.25027800  0.75005996  0.33060593
   0.75034872  0.24992288  0.33056264
   0.75031915  0.75009698  0.33055824
   0.25070709  0.24984214  0.46368150
   0.25080822  0.75015072  0.46365676
   0.75094434  0.24982656  0.46373654
   0.75086242  0.75017381  0.46370432
   0.24919239  0.24881675  0.59252582
   0.25004479  0.75072719  0.59284012
   0.75306694  0.24800379  0.59297146
   0.75249984  0.75179197  0.59292637
  -0.00000536 -0.00000375  0.13060749
  -0.00000912  0.49999804  0.13061682
   0.49999040 -0.00000217  0.13061336
   0.49999410  0.49999603  0.13059780
   0.00003035  0.00000634  0.26419298
   0.00010363  0.49999904  0.26421993
   0.50008713 -0.00002980  0.26422184
   0.50001373  0.50003059  0.26415526
   0.00055127  0.99995439  0.39854512
   0.00043175  0.49997659  0.39858402
   0.50052614 -0.00000531  0.39863102
   0.50066821  0.49988354  0.39833577
   0.00118506  0.99992939  0.53445165
   0.00124523  0.50014737  0.53453449
   0.50123172  0.99943039  0.53464443
   0.50144578  0.49974814  0.53234484
   0.99928958  0.99971750  0.99935322
   0.99929946  0.49971675  0.99934840
   0.49928914  0.99971747  0.99934793
   0.49929862  0.49971643  0.99934497
   0.00004782  0.00001973  0.06202067
   0.00004942  0.50001963  0.06202037
   0.50004848  0.00001946  0.06202108
   0.50004886  0.50001999  0.06202172
   0.00000392  0.24999069  0.12988571
   0.00000345  0.75000993  0.12988564
   0.24999616  0.00000138  0.12988596
   0.25001967  0.50000172  0.12988795
   0.50000356  0.25001392  0.12988814
   0.50000411  0.74998697  0.12988851
   0.75000860  0.00000144  0.12988645
   0.74998598  0.50000160  0.12988751
   0.00003205 -0.00000019  0.19674006
   0.00002567  0.50000841  0.19674911
   0.50002210  0.00000472  0.19674712
   0.50003418  0.50000435  0.19675672
  -0.00000610  0.25003405  0.26396918
   0.00001100  0.75000179  0.26398450
   0.25012291  0.00002846  0.26400946
   0.25014667  0.49997295  0.26395821
   0.50000997  0.25004485  0.26401329
   0.49999228  0.74998991  0.26396455
   0.75011001 -0.00001445  0.26394441
   0.75010948  0.50001580  0.26401906
   0.00007294  0.00015564  0.33100435
   0.00080081  0.49996417  0.33101362
   0.50064755  0.99980116  0.33100994
   0.49996445  0.50032902  0.33105010
   0.00221243  0.25013850  0.39823373
   0.99927341  0.75007740  0.39814924
   0.25068109  0.99862546  0.39808560
   0.25079952  0.50166665  0.39850844
   0.49921093  0.25029442  0.39812030
   0.50215400  0.74997293  0.39838756
   0.75066542  0.00158978  0.39829238
   0.75050804  0.49870340  0.39800417
   0.00127767  0.99993545  0.46524278
   0.99940598  0.50028510  0.46520753
   0.50037017  0.00090292  0.46519748
   0.50222573  0.49951201  0.46488563
   0.99701841  0.24976149  0.53307413
   0.00505683  0.75034671  0.53314713
   0.25073658  0.00408546  0.53325275
   0.24938254  0.49587861  0.53257872
   0.50528027  0.24851730  0.53339039
   0.49718241  0.75188897  0.53280311
   0.75134064  0.99610429  0.53301323
   0.75266917  0.50394348  0.53354411
   0.00015645  0.00046509  0.59989968
   0.00277976  0.49987145  0.60005113
   0.50153268  0.99900048  0.60006926
   0.49975375  0.50416975  0.59476087
   0.00041384  0.25021131  0.99577531
   0.00041758  0.75020824  0.99577488
   0.25053119  0.00016797  0.99577456
   0.25052598  0.50016320  0.99577729
   0.50041763  0.25020882  0.99577830
   0.50041406  0.75021111  0.99577771
   0.75052626  0.00016280  0.99577426
   0.75052637  0.50016825  0.99577701
   0.49420716  0.48483299  0.67236364
   0.40507111  0.37761443  0.66697543
   0.62970807  0.46171083  0.67015506
   0.44609188  0.61437031  0.67069263
Direct configuration=     6
   0.24983438  0.24993401  0.05764894
   0.24983439  0.74993435  0.05764892
   0.74983726  0.24993417  0.05764893
   0.74983719  0.74993418  0.05764869
   0.24999837  0.24998501  0.19585974
   0.24999549  0.75001701  0.19586271
   0.75002497  0.24999296  0.19586376
   0.75002786  0.75000895  0.19585675
   0.25023299  0.24989616  0.33054847
   0.25023835  0.75009753  0.33058916
   0.75034944  0.24990314  0.33055665
   0.75034337  0.75010033  0.33056320
   0.25044255  0.24962005  0.46362981
   0.25058508  0.75035618  0.46364994
   0.75119655  0.24953150  0.46369975
   0.75108480  0.75042098  0.46367631
   0.24867277  0.24852834  0.59207339
   0.24979269  0.75079523  0.59247389
   0.75298654  0.24771259  0.59259309
   0.75242790  0.75179681  0.59267639
  -0.00001453 -0.00000770  0.13058343
  -0.00001834  0.49999464  0.13059623
   0.49998076 -0.00000608  0.13059477
   0.49998448  0.49999237  0.13056029
   0.00008392  0.00001736  0.26423930
   0.00012640  0.49998902  0.26425724
   0.50009743 -0.00000628  0.26427617
   0.50005413  0.50000600  0.26415388
   0.00056901  0.99993786  0.39860797
   0.00046978  0.49999776  0.39875531
   0.50053160 -0.00002874  0.39880606
   0.50063087  0.49990230  0.39797653
   0.00109010  0.99988143  0.53444463
   0.00106208  0.50014483  0.53472093
   0.50126463  0.99916653  0.53481634
   0.50149498  0.49968872  0.53151866
   0.99913080  0.99965371  0.99932961
   0.99914091  0.49965377  0.99932826
   0.49913128  0.99965333  0.99932795
   0.49914055  0.49965339  0.99932161
   0.00008294  0.00003343  0.06207515
   0.00008498  0.50003341  0.06207262
   0.50008374  0.00003311  0.06207212
   0.50008420  0.50003398  0.06207760
   0.00000694  0.25000064  0.12991387
   0.00000611  0.75000415  0.12991336
   0.25000599  0.00000240  0.12991315
   0.25003200  0.50000310  0.12991918
   0.50000625  0.25002597  0.12991855
   0.50000719  0.74997930  0.12991934
   0.75001390  0.00000273  0.12991455
   0.74998983  0.50000270  0.12991795
   0.00006983 -0.00000172  0.19663489
   0.00004285  0.50001775  0.19664424
   0.50003483  0.00001542  0.19663979
   0.50007189  0.50000210  0.19665758
   0.00000887  0.25004695  0.26396380
   0.00004869  0.74999788  0.26398771
   0.25014462  0.00004073  0.26401962
   0.25017064  0.49996905  0.26394899
   0.50005068  0.25006298  0.26403177
   0.50001003  0.74998436  0.26396018
   0.75014465 -0.00002332  0.26392830
   0.75014056  0.50003308  0.26404605
   0.00010868  0.00016197  0.33090100
   0.00085003  0.49995878  0.33091549
   0.50063083  0.99980552  0.33090390
   0.49989848  0.50034878  0.33092332
   0.00227786  0.25010594  0.39824760
   0.99919657  0.75010135  0.39816120
   0.25062439  0.99858592  0.39810032
   0.25088111  0.50169448  0.39853335
   0.49912676  0.25041314  0.39815054
   0.50221073  0.74987842  0.39841178
   0.75070317  0.00166638  0.39830352
   0.75041210  0.49861453  0.39803328
   0.00128236  0.99995063  0.46515133
   0.99943896  0.50028590  0.46498356
   0.50029710  0.00097775  0.46496267
   0.50222275  0.49957453  0.46442931
   0.99693147  0.24938399  0.53303972
   0.00520201  0.75069361  0.53311717
   0.25033511  0.00423129  0.53321330
   0.24837264  0.49568009  0.53212984
   0.50538159  0.24770335  0.53298477
   0.49698656  0.75309090  0.53225725
   0.75171191  0.99608723  0.53298039
   0.75371510  0.50398892  0.53305403
   0.00017696  0.00054299  0.59979987
   0.00250892  0.49976120  0.60005240
   0.50152768  0.99905645  0.60005551
   0.50018509  0.50530021  0.59445174
   0.00049209  0.25025654  0.99585903
   0.00049421  0.75025270  0.99585844
   0.25064557  0.00020033  0.99585768
   0.25064494  0.50019452  0.99586139
   0.50049402  0.25025964  0.99586319
   0.50049213  0.75025024  0.99586232
   0.75063936  0.00019432  0.99585728
   0.75063310  0.50020037  0.99586103
   0.49157632  0.48238301  0.67463223
   0.40664921  0.37889628  0.66830184
   0.63118083  0.46170113  0.67098085
   0.44626525  0.61480267  0.67162258
Direct configuration=     7
   0.24984367  0.24993779  0.05765853
   0.24984366  0.74993789  0.05765851
   0.74984619  0.24993797  0.05765852
   0.74984615  0.74993769  0.05765830
   0.24999811  0.24998690  0.19586075
   0.24999561  0.75001494  0.19586383
   0.75002307  0.24999389  0.19586461
   0.75002558  0.75000786  0.19585804
   0.25023525  0.24990342  0.33054684
   0.25024409  0.75009209  0.33059159
   0.75034934  0.24990600  0.33055751
   0.75033986  0.75009985  0.33056248
   0.25048086  0.24965222  0.46363730
   0.25061740  0.75032643  0.46365093
   0.75116002  0.24957423  0.46370507
   0.75105259  0.75038518  0.46368037
   0.24874803  0.24857011  0.59213891
   0.24982920  0.75078537  0.59252693
   0.75299819  0.24775477  0.59264789
   0.75243832  0.75179611  0.59271259
  -0.00001320 -0.00000713  0.13058691
  -0.00001700  0.49999513  0.13059921
   0.49998215 -0.00000552  0.13059746
   0.49998587  0.49999290  0.13056573
   0.00007616  0.00001576  0.26423259
   0.00012310  0.49999047  0.26425184
   0.50009594 -0.00000968  0.26426830
   0.50004828  0.50000956  0.26415408
   0.00056644  0.99994025  0.39859887
   0.00046427  0.49999469  0.39873051
   0.50053081 -0.00002534  0.39878071
   0.50063628  0.49989959  0.39802856
   0.00110385  0.99988838  0.53444564
   0.00108860  0.50014520  0.53469393
   0.50125987  0.99920475  0.53479144
   0.50148785  0.49969733  0.53163831
   0.99915379  0.99966295  0.99933303
   0.99916388  0.49966289  0.99933118
   0.49915414  0.99966262  0.99933084
   0.49916344  0.49966252  0.99932500
   0.00007785  0.00003145  0.06206726
   0.00007983  0.50003141  0.06206505
   0.50007863  0.00003114  0.06206473
   0.50007908  0.50003195  0.06206951
   0.00000650  0.24999920  0.12990979
   0.00000572  0.75000499  0.12990935
   0.25000457  0.00000226  0.12990921
   0.25003022  0.50000290  0.12991466
   0.50000586  0.25002423  0.12991414
   0.50000675  0.74998041  0.12991488
   0.75001314  0.00000254  0.12991048
   0.74998927  0.50000254  0.12991354
   0.00006436 -0.00000150  0.19665012
   0.00004036  0.50001640  0.19665943
   0.50003298  0.00001387  0.19665534
   0.50006643  0.50000243  0.19667194
   0.00000670  0.25004508  0.26396458
   0.00004323  0.74999845  0.26398724
   0.25014148  0.00003895  0.26401815
   0.25016717  0.49996961  0.26395033
   0.50004479  0.25006036  0.26402909
   0.50000746  0.74998516  0.26396081
   0.75013964 -0.00002203  0.26393063
   0.75013606  0.50003058  0.26404214
   0.00010350  0.00016106  0.33091597
   0.00084290  0.49995956  0.33092970
   0.50063325  0.99980488  0.33091925
   0.49990803  0.50034592  0.33094168
   0.00226839  0.25011066  0.39824559
   0.99920770  0.75009788  0.39815947
   0.25063260  0.99859164  0.39809819
   0.25086929  0.50169045  0.39852974
   0.49913895  0.25039594  0.39814616
   0.50220252  0.74989211  0.39840827
   0.75069770  0.00165529  0.39830190
   0.75042600  0.49862740  0.39802906
   0.00128168  0.99994843  0.46516457
   0.99943419  0.50028579  0.46501599
   0.50030768  0.00096692  0.46499668
   0.50222318  0.49956548  0.46449539
   0.99694406  0.24943866  0.53304470
   0.00518098  0.75064337  0.53312151
   0.25039326  0.00421017  0.53321901
   0.24851890  0.49570884  0.53219485
   0.50536691  0.24782123  0.53304352
   0.49701493  0.75291683  0.53233631
   0.75165814  0.99608970  0.53298515
   0.75356362  0.50398234  0.53312501
   0.00017399  0.00053170  0.59981433
   0.00254815  0.49977717  0.60005222
   0.50152841  0.99904834  0.60005750
   0.50012262  0.50513649  0.59449651
   0.00048076  0.25024999  0.99584691
   0.00048311  0.75024626  0.99584633
   0.25062900  0.00019565  0.99584564
   0.25062771  0.50018998  0.99584921
   0.50048296  0.25025228  0.99585089
   0.50048082  0.75024457  0.99585006
   0.75062298  0.00018975  0.99584525
   0.75061765  0.50019572  0.99584886
   0.49195733  0.48273783  0.67430368
   0.40642066  0.37871063  0.66810975
   0.63096754  0.46170253  0.67086125
   0.44624014  0.61474006  0.67148790
Direct configuration=     8
   0.24979273  0.24991578  0.05758749
   0.24979282  0.74992055  0.05758750
   0.74979934  0.24991587  0.05758753
   0.74979918  0.74992045  0.05758719
   0.24999490  0.24997227  0.19582864
   0.24999305  0.75003040  0.19583189
   0.75003988  0.24997874  0.19583321
   0.75004175  0.75002382  0.19582602
   0.25019558  0.24984177  0.33052830
   0.25018863  0.75014536  0.33055222
   0.75038389  0.24986499  0.33052835
   0.75038953  0.75012993  0.33053809
   0.25022014  0.24942365  0.46354809
   0.25037548  0.75053914  0.46359032
   0.75141190  0.24929984  0.46362214
   0.75129377  0.75062109  0.46360223
   0.24851636  0.24851168  0.59182941
   0.24979516  0.75068691  0.59227185
   0.75280160  0.24768396  0.59238450
   0.75225533  0.75163770  0.59253526
  -0.00002250 -0.00001108  0.13052997
  -0.00002614  0.49999162  0.13054190
   0.49997283 -0.00000946  0.13054396
   0.49997635  0.49998923  0.13049154
   0.00010093  0.00001584  0.26419939
   0.00014732  0.49999011  0.26422982
   0.50011632 -0.00001146  0.26425504
   0.50006851  0.50000951  0.26404744
   0.00058211  0.99993827  0.39856412
   0.00047016  0.49999836  0.39881324
   0.50053087 -0.00002549  0.39886175
   0.50062663  0.49989607  0.39760403
   0.00105388  0.99985140  0.53436840
   0.00097163  0.50012804  0.53474724
   0.50123209  0.99911685  0.53483490
   0.50146550  0.49958563  0.53119702
   0.99901401  0.99960698  0.99925505
   0.99902413  0.49960694  0.99925569
   0.49901465  0.99960640  0.99925556
   0.49902396  0.49960644  0.99924629
   0.00010660  0.00004249  0.06222368
   0.00010892  0.50004260  0.06222249
   0.50010766  0.00004211  0.06222107
   0.50010797  0.50004337  0.06222977
   0.00000974  0.25001292  0.12992615
   0.00000861  0.74999575  0.12992500
   0.25001856  0.00000348  0.12992401
   0.25004070  0.50000410  0.12993432
   0.50000873  0.25003409  0.12993253